/*--------------------------------*- C++ -*----------------------------------*\
| =========                 |                                                 |
| \\      /  F ield         | OpenFOAM: The Open Source CFD Toolbox           |
|  \\    /   O peration     | Version:  2212                                  |
|   \\  /    A nd           | Website:  www.openfoam.com                      |
|    \\/     M anipulation  |                                                 |
\*---------------------------------------------------------------------------*/
FoamFile
{
    version     2.0;
    format      ascii;
    arch        "LSB;label=32;scalar=64";
    class       volScalarField;
    location    "0";
    object      stateMean;
}
// * * * * * * * * * * * * * * * * * * * * * * * * * * * * * * * * * * * * * //

dimensions      [0 0 0 1 0 0 0];

internalField   nonuniform List<scalar> 
3200
(
317.989
320.616
316.611
320.751
317.795
321.517
321.073
320.557
319.351
319.196
318.811
318.853
318.495
319.768
321.885
320.607
319.699
319.586
317.456
318.55
316.509
316.409
315.659
316.098
316.915
317.042
319.647
319.151
317.713
319.754
316.183
316.547
317.733
318.034
317.677
316.157
317.537
318.184
316.256
313.426
313.614
313.317
312.779
312.461
315.04
316.169
315.2
316.154
314.233
315.23
314.715
314.689
315.392
315.284
311.087
314.581
313.648
315.956
313.188
314.194
309.02
313.007
310.954
311.707
312.267
311.945
311.342
313.046
312.137
314.239
312.242
311.634
313.147
313.288
313.162
310.086
312.491
311.872
311.931
308.996
308.073
306.266
309.766
308.585
309.786
310.516
309.776
307.863
310.433
310.497
309.243
308.668
310.072
307.488
309.954
308.835
308.647
309.424
308.674
308.139
307.145
305.45
306.54
305.263
305.12
309.154
308.202
306.72
306.918
304.106
306.183
309.103
306.266
306.263
308.255
308.418
304.528
305.342
307.19
303.449
302.058
303.205
303.933
304.768
303.274
302.855
304.126
307.2
303.406
306.866
302.263
302.713
302.721
303.946
304.718
303.033
303.567
304.061
302.598
304.015
302.465
302.064
299.409
303.272
300.214
300.302
299.451
299.125
301.128
301.434
300.779
299.947
301.25
302.827
301.406
302.59
299.528
301.114
302.66
302.688
321.317
319.607
320.732
319.246
319.169
319.476
321.399
321.49
319.679
320.822
322.651
321.557
322.271
321.059
318.731
318.981
320.682
317.634
321.287
318.193
316.487
316.449
316.768
321.26
314.943
322.721
316.525
322.642
317.541
323.569
323.912
314.524
323.268
318.127
322.185
320.081
321.066
317.203
320.82
316.284
312.526
315.427
313.299
315.049
314.55
316.684
314.65
313.401
315.122
318
316.876
317.25
316.669
312.327
315.614
312.986
314.72
314.781
315.009
314.701
311.054
312.82
313.626
311.292
311.468
312.679
312.276
313.7
313.448
314.322
313.012
315.348
309.746
312.968
310.935
312.549
313.072
311.518
311.266
312.12
310.544
310.145
307.33
310.249
309.021
311.55
309.62
308.181
308.893
310.486
307.311
309.897
310.368
308.675
310.431
309.767
311.458
308.995
309.533
309.06
306.846
306.874
306.088
304.937
305.203
308.33
307.831
308.536
306.94
307.595
308.419
306.743
307.255
307.707
305.708
304.82
306.212
307.296
306.62
306.167
303.477
302.849
304.862
303.393
303.003
305.283
302.775
304.394
305.398
302.671
305.388
303.866
306.971
304.732
303.357
302.813
305.268
303.19
304.574
304.802
300.528
300.583
299.07
300.608
301.112
304.63
301.5
302.739
299.826
301.116
300.301
301.635
302.597
301.044
300.588
301.879
301.579
301.088
303.076
300.924
318.444
321.171
319.917
323.05
320.749
322.029
322.002
320.099
322.357
322.639
321.529
322.221
321.794
321.964
321.408
323.135
323.214
322.632
319.531
320.404
318.693
318.064
314.922
320.475
317.526
319.862
321.269
317.69
318.366
319.777
317.986
318.749
321.583
320.215
318.729
318.058
315.945
315.188
318.481
319.178
316.27
314.429
314.483
314.626
315.382
318.765
315.302
316.827
319.805
316.26
314.521
318.015
316.084
315.419
317.536
314.262
313.43
313.925
315.447
317.53
313.255
312.725
311.24
313.66
311.793
313.933
308.48
311.533
312.622
314.653
314.03
313.037
314.059
312.211
312.923
311.687
312.175
313.86
314.41
312.881
309.411
311.634
306.182
309.737
309.273
310.005
310.433
311.993
311.435
307.902
309.433
310.018
312.596
309.854
311.391
307.245
313.962
311.007
310.377
309.109
304.47
307.019
305.349
308.322
306.166
307.514
307.793
305.789
308.19
306.729
308.348
305.557
306.426
307.495
306.323
309.396
308.332
305.83
308.728
309.355
305.955
302.469
304.746
303.48
304.36
305.715
305.268
306.177
306.739
303.915
303.163
304.703
304.603
303.436
304.327
305.264
304.027
302.875
303.68
302.754
301.17
301.96
302.03
301.208
300.638
302.005
303.921
299.387
302.241
302.995
303.525
302.429
299.874
300.676
300.497
302.229
302.984
299.285
300.094
301.352
322.213
320.562
323.694
322.108
323.22
321.19
323.643
323.622
322.246
324.528
323.06
323.749
325.373
321.105
323.713
324.163
322.495
323.561
321.153
321.962
320.341
320.123
318.591
321.16
321.416
323.235
319.29
323.391
321.894
324.381
323.923
319.38
323.688
319.878
321.769
319.537
321.571
318.66
321.622
320.968
315.138
317.102
315.802
317.349
316.162
318.593
315.256
317.049
314.674
317.786
317.687
318.168
315.167
316.16
317.442
315.417
315.969
315.729
315.95
314.452
313.294
313.197
315.152
312.874
312.879
313.473
314.121
313.933
314.573
315.696
315.651
314.994
314.129
311.236
313.458
311.815
311.579
314.478
311.914
314.77
310.997
308.325
308.522
311.151
308.041
311.32
309.634
312.423
312.416
310.238
313.509
310.405
311.76
309.209
311.749
311.086
310.589
311.221
309.73
310.321
306.891
307.047
308.623
306.394
308.438
307.266
307.757
310.444
309.945
305.987
307.635
307.861
307.528
307.62
306.722
308.89
306.329
307.034
308.923
308.043
303.618
306.628
305.488
305.557
303.037
303.178
304.019
305.07
303.375
303.904
304.847
303.101
303.617
304.879
302.813
304.129
304.673
305.911
304.035
305.482
300.076
300.095
299.671
299.768
299.526
303.883
302.582
303.094
299.363
302.693
299.017
302.534
302.566
301.516
301.278
297.426
301.48
301.02
301.52
301.111
322.671
321.292
320.894
323.493
326.423
324.187
324.689
324.059
325.044
325.936
323.918
326.228
325.488
326.357
324.59
322.142
324.781
321.204
325.633
323.044
318.801
320.594
322.396
319.797
318.903
320.879
321.783
320.716
320.595
320.35
318.209
323.253
322.524
319.266
320.433
319.095
320.22
320.145
319.027
320.355
316.065
317.535
316.339
317.056
318.183
319.641
316.949
317.332
320.363
317.679
316.004
318.663
315.735
317.506
318.853
315.23
316.206
318.469
316.897
318.253
313.049
313.008
313.44
313.45
314.425
312.288
313.455
316.107
313.364
314.884
316.243
314.112
316.565
313.874
316.517
313.739
313.281
313.907
313.174
316.079
309.613
312.165
309.823
310.093
310.786
312.182
310.053
312.029
313.937
309.68
310.723
313.169
313.01
312.757
314.301
311.502
307.939
311.757
313.986
312.98
307.427
307.437
306.879
305.721
306.69
305.451
307.859
310.803
308.639
307.481
307.421
309.579
310.215
307.65
310.636
306.999
305.979
306.896
308.717
307.637
303.206
303.892
306.186
303.26
305.635
305.826
303.081
303.626
304.759
306.766
305.332
305.525
305.888
306.252
305.408
303.38
305.462
303.961
306.438
306.596
303.318
303.221
300.152
300.101
301.288
303.091
301.725
303.297
300.36
303.675
300.999
304.072
302.33
302.329
301.99
303.175
302.112
300.442
301.849
303.467
321.55
325.541
324.871
326.497
323.651
323.666
325.974
324.992
322.395
326.615
325.632
327.3
326.853
324.378
324.624
325.228
325.401
323.315
323.129
319.237
319.042
319.249
319.912
320.247
321.337
322.538
321.119
323.453
320.185
324.352
324.328
320.956
323.688
321.01
322.969
322.312
322.159
322.876
321.467
320.62
316.474
316.964
318.317
318.091
318.457
317.057
319.287
319.408
317.068
317.47
320.561
316.785
318.871
316.998
318.918
318.731
317.051
317.984
317.466
318.674
311.647
313.093
313.901
312.69
315.975
313.67
315.018
316.313
317.018
315.843
314.355
316.497
316.247
313.482
316.139
315.24
317.186
315.979
313.96
312.843
311.509
309.94
311.767
311.777
311.015
311.507
311.916
311.611
311.413
312.535
313.028
314.562
311.778
311.672
312.031
307.095
312.041
311.349
311.13
310.956
306.704
308.614
307.66
307.431
306.451
308.981
308.545
309.188
309.42
309.18
308.929
309.865
308.395
306.332
308.517
305.344
308.466
306.001
305.603
306.863
304.773
305.645
307.053
305.448
304.687
304.003
304.933
306.499
305.701
305.926
306.102
304.154
307.001
305.476
304.507
303.901
307.494
305.549
304.271
306.349
302.665
302.846
302.383
299.483
299.296
302.042
301.038
302.862
302.617
301.394
302.437
299.142
301.515
301.16
302.448
301.826
304.605
303.325
298.86
301.795
326.222
323.157
325.183
324.644
327.245
324.051
326.158
325.799
326.983
325.03
327.151
325.764
327.768
326.296
326.472
325.314
326.652
326.6
326.388
324.06
319.038
321.705
320.501
323.258
319.344
323.686
321.71
323.893
321.888
322.317
325.104
322.938
320.67
321.695
322.365
323.031
321.963
322.188
321.865
320.363
317.477
318.81
318.13
318.491
321.303
319.766
319.661
321.906
317.53
320.275
320.003
321.391
318.256
321.599
318.807
318.927
317.775
316.692
320.459
321.157
312.387
313.989
314.455
314.344
315.948
316.492
315.712
317.675
315.637
315.515
316.605
315.751
317.036
313.949
314.254
315.642
315.714
317.225
314.623
315.471
309.644
311.911
313.451
309.024
312.334
312.954
312.782
311.297
312.056
312.972
314.607
312.464
313.613
313.571
312.484
313.23
312.038
312.108
311.372
311.567
305.583
306.459
308.78
308.088
308.685
306.941
309.201
308.488
311.582
310.61
309.715
308.857
309.947
306.954
310.107
308.23
309.115
307.985
310.839
306.6
304.259
306.201
305.015
305.459
302.393
306.014
303.912
304.782
305.565
305.64
305.463
305.84
305.574
305.419
305.177
303.976
304.082
305.706
302.969
304.644
303.393
301.554
300.839
301.304
301.001
302.407
302.299
300.921
301.899
302.135
301.598
301.664
300.714
300.474
302.082
302.416
298.351
299.58
301.87
303.183
323.138
325.818
326.59
325.101
328.14
327.313
328.055
329.201
324.275
327.74
328.845
325.934
329.624
327.402
328.401
327.534
327.057
327.143
326.327
325.396
323.593
319.38
320.838
322.286
323.145
324.293
324.759
324.07
324.321
325.2
324.637
321.44
324.873
320.59
323.477
321.829
322.525
322.809
322.272
322.578
317.722
317.834
319.008
321.16
320.369
318.868
321.99
318.39
320.514
318.456
321.483
320.456
317.834
321.192
319.441
320.207
319.456
318.363
317.183
319.818
315.323
312.829
315.009
315.876
316.837
317.195
317.089
315.206
317.818
317.775
319.045
316.305
317.803
316.193
316.803
318.192
314.29
314.051
313.542
315.834
312.225
312.117
311.428
312.417
312.047
314.285
313.131
312.389
314.75
314.157
312.92
312.479
314.461
313.41
313.039
313.76
310.642
311.956
312.142
311.587
308.244
308.993
310.293
309.696
310.619
306.907
310.943
307.756
307.932
312.002
311.183
310.311
309.467
309.523
310.766
308
308.79
308.231
307.595
305.518
305.285
305.837
304.571
305.314
302.263
306.915
307.827
308.71
305.027
304.536
306.834
304.705
306.174
307.325
305.387
304.975
306.067
304.712
305.618
303.484
300.274
300.945
302.058
301.505
299.803
303.557
301.771
301.185
302.765
304.112
303.718
304.601
299.94
300.354
302.101
302.81
302.735
303.908
300.554
300.041
325.242
325.13
326.835
327.364
327.843
325.066
330.048
330.609
331.21
329.311
329.251
327.261
328.73
329.873
330.789
327.715
328.243
326.53
327.233
325.68
322.016
324.589
324.269
323.339
325.236
325.933
324.602
326.826
324.411
322.345
323.47
325.507
324.028
326.107
326.157
324.263
325.12
323.339
323.376
322.908
318.611
319.076
320.677
318.74
320.353
319.485
322.826
320.385
323.987
321.826
320.387
321.342
319.858
320.983
323.952
318.624
322.686
316.695
319.74
317.105
317.488
315.382
316.959
317.025
318.362
315.959
319.584
317.82
317.383
317.95
318.254
316.185
317.726
316.598
315.825
316.153
316.298
314.575
314.512
314.874
311.935
312.703
311.471
313.435
312.227
314.704
313.538
313.751
316.554
314.013
314.005
316.142
314.015
312.947
315.117
315.102
313.441
313.161
310.754
314.504
307.116
308.441
308.423
306.379
310.673
308.34
309.295
308.394
308.806
308.091
308.909
309.851
307.952
310.222
310.606
310.846
312.114
310.283
307.29
309.945
305.437
305.971
304.819
303.379
305.879
302.915
306.293
305.071
305.113
307.131
303.256
305.26
305.646
307.959
306.53
302.895
307.01
306.324
306.954
302.777
302.085
300.214
301.788
301.944
301.072
301.779
301.48
299.716
302.875
302.254
302.924
300.822
302.156
302.746
303.464
303.355
300.896
300.419
301.505
302.09
326.358
327.429
328.407
329.503
330.574
329.592
328.922
329.052
330.049
331.12
328.794
330.23
329.695
329.583
327.993
331.118
329.772
328.138
329.49
328.706
324.693
321.576
326.786
322.806
324.085
323.75
325.891
325.674
329.936
325.248
325.024
326.281
325.22
325.661
324.611
326.626
324.268
325.226
323.305
325.788
322.492
320.975
324.451
322.732
318.519
322.097
321.582
321.265
324.911
320.237
320.223
322.724
322.517
320.909
322.088
324.221
323.029
322.152
321.403
320.092
315.926
315.857
317.019
316.868
315.611
318.529
315.834
318.666
319.123
318.92
319.078
318.22
317.789
319.47
318.582
316.964
319.432
318.273
318.349
319.207
313.16
313.477
315.962
314.696
315.094
314.557
314.305
312.307
315.26
312.988
315.698
314.118
312.995
313.86
312.308
314.545
315.249
315.13
311.7
312.597
308.229
309
308.815
308.864
310.238
308.635
309.885
309.464
311.251
309.791
309.153
309.906
309.263
310.141
310.939
308.383
311.005
309.72
309.915
307.155
303.531
306.754
304.474
307.92
302.888
304.319
305.433
305.332
306.459
305.84
305.518
304.966
302.965
307.298
305.84
303.574
306.799
307.695
306.693
305.879
302.975
302.809
304.988
300.423
303.368
299.97
302.279
301.886
298.561
301.23
302.377
303.159
302.277
301.314
300.182
301.347
304.428
302.191
302.103
300.585
327.812
328.525
329.081
330.378
328.526
327.51
330.535
334.26
327.849
330.552
331.298
332.32
331.109
331.321
330.592
331.045
332.169
329.683
328.601
329.712
323.624
324.229
324.128
323.481
326.87
325.058
327.231
325.905
325.471
326.625
325.275
327.477
325.907
325.581
325.353
326.775
324.314
325.939
323.943
322.599
321.016
322.267
321.57
321.161
322.183
323.323
322.419
323.187
320.574
322.93
323.557
321.13
322.555
324.165
320.812
323.696
318.924
322.427
320.281
323.521
316.425
314.764
317.134
318.671
318.802
317.974
316.818
319.972
318.401
318.676
317.701
319.465
319.265
316.428
321.765
320.069
318.52
318.717
316.429
316.573
315.312
311.559
313.561
314.399
314.456
314.254
316.057
312.402
314.349
312.77
315.721
314.617
313.826
317.146
317.634
314.695
313.35
314.555
315.492
314.342
308.876
307.588
308.038
309.77
312.042
311.271
313.484
311.05
309.367
308.896
307.925
309.99
309.283
308.266
310.31
311.135
308.667
309.168
311.441
312.246
306.016
304.857
306.526
306.555
306.766
306.345
304.363
305.562
306.926
304.694
306.485
306.761
304.293
305.123
306.325
307.534
308.569
307.16
306.742
305.76
301.93
302.261
301.803
301.73
302.244
301.067
301.859
303.52
300.957
301.15
299.682
301.551
300.231
304.161
301.584
301.914
301.895
303.038
301.417
302.493
329.018
326.755
330.226
328.101
330.703
333.355
329.518
332.145
330.687
329.82
333.253
332.512
328.887
332.337
333.774
331.536
332.108
332.612
329.239
327.717
322.726
326.543
323.99
324.986
328.7
328.907
326.713
329.731
328.488
326.35
327.481
326.284
328.501
326.588
327.349
327.401
325.476
327.11
328.639
327.955
324.38
321.359
322.872
322.059
322.502
323.119
323.347
324.624
322.528
323.941
324.578
324.366
325.7
321.133
323.758
323.603
321.648
319.978
323.319
321.475
317.881
316.518
318.006
317.732
317.051
317.146
320.762
318.642
322.735
317.256
320.676
320.406
318.988
318.248
319.497
318.563
317.567
315.683
318.159
318.183
311.951
314.356
313.916
315.208
317.392
315.643
313.959
314.912
317.394
315.131
315.289
314.988
315.619
314.824
316.483
314.549
313.988
316.248
314.227
313.132
310.717
307.06
309.865
309.428
310.239
310.523
310.019
309.619
310.591
311.923
310.44
310.337
311.962
312.33
309.771
312.095
312.346
309.532
307.479
311.802
304.769
305.028
307.219
308.78
307.572
308.66
306.997
307.278
306.702
307.637
307.292
306.826
307.745
306.112
306.118
307.536
306.787
303.855
305.285
304.887
302.459
302.731
301.794
300.969
303.775
300.448
303.269
302.182
304.828
302.909
302.465
302.61
300.812
301.797
298.684
302.489
303.562
304.983
300.024
303.011
330.271
328.623
328.209
332.258
332.279
334.13
333.893
330.884
332.713
330.9
336.634
333.364
332.532
333.673
332.815
332.613
331.97
331.603
329.93
330.264
327.905
325.076
328.321
325.829
327.423
326.539
329.765
326.971
326.142
327.525
327.105
328.436
326.927
330.909
326.566
327.297
325.913
323.724
324.76
327.629
322.984
324.469
323.337
322.151
324.938
324.358
323.009
320.892
324.134
323.495
325.94
325.08
324.837
325.332
324.824
321.87
324.035
324.08
323.376
323.322
318.181
317.742
317.595
318.747
320.774
318.759
321.785
319.435
318.258
319.646
319.357
319.693
321.273
321.708
322.297
318.908
318.75
318.512
320.041
317.854
315.909
312.862
315.066
313.983
312.723
317.126
315.95
316.695
315.532
312.871
315.438
316.406
315.64
314.857
316.215
315.167
314.569
314.416
315.269
314.946
311.694
311.52
313.078
313.165
309.463
310.949
312.123
308.494
309.821
309.452
310.452
310.177
313.618
311.551
311.921
308.81
310.347
313.384
311.769
311.41
304.975
306.534
308.883
304.573
308.071
306.964
309.427
305.109
310.37
307.414
308.169
306.354
305.171
306.05
309.773
307.403
304.376
304.708
306.303
305.817
303.556
302.714
302.663
303.228
301.238
300.906
302.763
302.805
302.352
300.3
301.343
303.001
302.474
302.599
303.988
299.605
301.379
302.738
302.265
300.223
330.763
332.052
332.211
333.543
330.557
330.121
333.309
335.42
334.593
331.071
333.877
335.349
330.952
334.816
333.301
333.049
331.605
333.229
333.298
334.658
329.373
324.378
326.785
327.065
328.81
330.419
331.653
329.306
332.153
329.938
330.448
329.727
330.774
332.043
328.985
329.552
329.519
326.948
328.217
328.416
320.145
322.925
321.006
322.285
324.057
323.777
324.839
325.124
325.832
328.725
326.233
323.483
325.51
328.441
324.078
324.485
323.664
323.492
321.948
323.612
317.555
316.821
317.765
319.879
319.223
318.558
317.682
320.144
319.062
318.931
321.198
321.891
319.767
321.325
321.541
318.552
319.54
318.724
319.83
318.642
315.816
312.437
313.249
315.326
314.771
315.027
319.371
315.643
315.747
314.459
313.415
319.118
315.291
316.991
314.295
316.213
315.394
314.172
316.286
314.629
310.502
311.005
310.144
308.493
311.811
311.65
310.529
310.807
311.83
311.169
312.925
309.228
313.52
312.355
310.917
312.856
311.063
313.655
308.343
309.824
307.124
306.354
307.112
306.387
306.139
304.619
305.942
306.498
306.465
306.559
307.554
305.334
305.381
305.66
303.448
305.946
307.236
308.329
306.187
304.283
303.251
302.535
304.467
303.09
303.094
302.124
302.74
302.975
300.801
299.275
300.483
307.138
304.013
301.689
303.803
302.732
302.193
301.418
302.923
300.138
329.049
328.883
332.928
334.044
334.166
332.072
336.042
333.357
334.756
335.427
332.716
332.04
336.577
334.676
337.424
333.868
330.938
333.664
332.51
333.868
328.316
325.861
327.951
327.235
331.284
327.953
329.867
328.277
331.248
328.733
329.403
329.701
328.759
331.86
327.711
331.39
328.195
326.92
327.229
327.51
321.932
322.868
324.259
325.854
324.209
323.592
324.38
324.636
322.985
324.709
326.485
326.647
325.981
329.229
325.871
325.789
323.597
325.009
324.043
323.574
315.536
320.669
319.889
319.39
319.531
319.326
323.204
321.614
319.725
320.822
320.778
325.124
320.517
321.027
320.45
318.635
318.613
320.833
321.195
321.219
313.618
315.509
316.333
316.505
314.077
314.102
318.572
316.087
318.014
316.418
314.489
318.235
316.7
315.906
316.155
316.447
315.639
314.272
315.036
316.397
312.686
308.816
312.271
311.014
310.204
311.476
312.059
315.627
313.412
311.064
314.364
310.243
313.115
313.928
311.051
309.958
312.382
310.873
307.68
311.851
307.554
306.925
304.859
305.543
309.48
308.56
306.431
309.9
307.484
308.739
305.326
308.559
305.8
306.546
307.081
308.046
308.476
305.876
305.502
304.994
302.941
302.821
303.793
301.741
303.3
302.871
305.49
303.858
301.875
301.846
300.698
304.321
304.374
301.611
302.907
302.843
303.834
299.727
302.088
303.08
334.239
332.427
332.394
334.361
334.932
333.577
337.361
334.666
337.409
335.95
337.032
338.234
335.081
336.595
336.502
334.719
332.038
332.696
335.213
332.813
329.798
327.234
329.602
327.311
330.065
330.597
330.998
329.627
330.366
328.952
331.125
331.467
331.153
331.533
331.274
331.465
329.15
330.837
327.454
330.85
327.584
325.273
327.344
326.858
325.648
324.93
325.553
328.681
325.603
327.09
326.787
329.91
328.367
327.183
325.061
325.256
325.576
324.993
324.58
325.457
316.461
322.098
318.939
318.749
322.985
322.783
317.723
322.101
322.961
320.93
321.31
319.786
321.814
320.801
321.703
318.951
321.336
320.358
320.127
322.225
316.649
316.278
316.211
316.95
316.034
316.066
315.707
315.718
318.322
317.681
318.857
315.684
316.115
316.648
315.733
315.584
313.267
316.047
315.13
314.1
310.856
311.063
311.691
313.068
309.921
311.185
312.11
312.363
311.85
312.222
309.738
312.49
312.385
310.798
311.723
310.135
311.046
311.301
311.09
311.134
306.563
303.948
305.234
308.624
307.011
307.792
308.201
307.177
306.987
305.097
307.582
306.785
309.075
307.173
305.975
304.607
305.864
305.53
306.352
306.06
304.749
303.409
303.631
303.392
302.776
301.077
302.377
302.806
303.529
304.473
300.69
303.723
303.773
304.417
300.518
302.506
304.216
301.39
303.178
302.59
332.481
335.335
331.699
334.163
333.181
334.886
338.752
335.535
336.841
335.056
337.663
338.744
335.275
336.91
334.861
335.382
333.932
334.082
333.077
331.847
330.713
325.786
330.059
328.869
331.039
329.969
330.225
330.478
331.158
330.135
330.117
333.908
330.138
328.767
330.289
331.09
329.072
330.334
329.605
327.981
321.933
327.401
324.652
324.452
324.282
325.717
325.511
325.847
328.966
327.128
327.879
325.543
324.832
328.575
328.397
323.636
324.937
325.056
325.706
325.447
317.19
322.21
322.011
319.126
321.718
320.136
321.248
323.339
322.315
321.259
321.972
322.64
321.799
322.129
323.174
321.701
323.233
322.584
321.347
320.749
312.273
312.945
314.263
316.278
317.008
315.377
315.426
313.731
317.453
318.207
317.736
319.435
319.53
317.336
317.735
317.34
314.823
316.834
316.531
316.075
310.22
310.392
312.147
310.936
311.868
311.101
313.258
311.863
313.124
312.051
314.103
312.621
313.56
313.42
313.145
311.187
312.909
310.72
311.401
311.223
305.672
306.982
305.811
305.044
306.244
305.195
307.259
306.179
307.294
308.619
309.099
306.712
310.63
308.442
307.175
307.823
308.766
306.814
306.447
305.275
303.275
301.501
303.417
303.763
302.435
305.126
300.571
305.183
301.83
304.851
302.891
303.369
303.881
302.634
304.176
301.624
304.176
303.87
302.74
303.752
332.51
334.046
336.671
334.416
338.072
336.018
335.487
338.437
338.689
337.626
335.499
336.573
340.025
338.242
337.72
335.599
334.43
334.917
335.278
333.863
327.058
328.821
329.624
330.511
330.187
332.337
331.651
332.253
333.591
331.47
334.389
330.035
333.339
334.415
333.953
332.083
329.221
332.405
332.32
329.419
325.548
323.286
323.993
326.158
325.837
326.402
326.818
327.85
328.887
329.681
327.962
327.337
327.217
327.153
328.072
329.636
326.227
324.498
325.241
325.011
320.726
320.188
321.43
320.461
319.91
323.305
323.283
320.551
322.795
322.879
323.155
321.831
322.646
323.344
321.527
322.478
320.468
320.982
319.806
322.646
317.602
316.023
314.355
317.334
316.079
319.289
316.276
315.627
319.028
318.353
315.152
316.719
318.182
316.942
317.618
316.395
315.913
314.924
313.936
316.26
312.693
310.208
311.685
310.646
312.569
310.812
311.654
312.944
311.461
313.324
310.703
309.999
315.968
309.664
313.512
311.713
309.923
309.505
310.91
312.267
305.847
307.411
306.736
308.119
307.638
307.741
306.682
307.867
305.598
309.158
306.134
307.345
304.868
304.505
307.913
307.853
309.513
308.995
306.282
308.724
303.367
302.587
300.484
302.941
302.222
303.028
301.403
306.849
303.72
301.731
304.085
302.822
302.386
300.784
302.884
300.626
301.086
299.253
302.795
301.987
334.061
331.439
334.258
335.016
336.177
336.255
334.168
337.835
337.125
338.645
337.18
338.605
338.164
336.924
337.415
336.714
335.179
337.171
335.157
336.984
326.861
330.506
330.617
331.183
330.653
332.046
330.351
332.465
331.975
332.458
332.274
333.673
332.299
333.776
331.625
331.257
331.348
330.952
332.249
329.62
323.355
326.253
323.811
325.964
325.287
326.025
325.206
327.028
328.264
327.92
326.228
328.22
329.485
330.706
327.405
327.594
325.878
327.957
324.051
325.08
319.383
319.292
321.761
322.553
323.692
322.431
322.56
324.087
323.703
320.793
321.958
322.317
323.576
321.266
324.583
324.626
323.942
319.894
322.308
323.119
316.393
316.933
316.912
318.673
317.2
317.042
318.407
319.376
317.229
318.453
317.002
317.553
317.193
316.158
316.722
315.951
319.53
318.579
317.114
315.164
312.273
309.399
310.882
312.038
310.386
313.206
312.46
312.487
315.085
312.149
310.624
313.907
312.698
314.143
309.941
313.314
312.339
313.396
310.653
312.706
308.571
303.999
306.83
306.233
305.432
307.257
305.98
309.241
308.354
308.555
307.971
308.689
306.242
308.97
307.276
308.972
307.574
306.1
305.413
309.148
299.829
299.91
300.736
304.044
301.061
301.797
304.558
303.469
304.205
302.001
303.232
299.437
301.697
303.139
301.879
303.09
300.954
304.173
301.568
304.666
333.976
334.553
335.568
336.187
338.959
337.381
339.182
337.867
336.124
337.66
339.722
339.24
338.812
339.196
337.081
336.977
336.374
337.746
335.629
333.969
328.181
331.023
331.445
332.47
331.624
333.062
333.291
334.498
335.391
331.319
332.417
333.082
336.728
334.287
334.182
333.103
330.873
331.766
332.127
329.903
324.287
325.297
326.968
327.341
326.56
328.13
327.18
329.157
328.715
328.593
329.032
330.809
327.332
330.236
329.074
325.892
327.406
328.052
327.624
322.43
321.655
321.36
321.716
320.136
322.74
322.461
323.998
325.741
324.093
323.609
325.039
323.451
324.445
324.217
325.963
323.698
323.09
320.843
322.445
323.295
315.395
315.875
317.258
317.345
319.308
318.5
319.202
317.664
318.497
317.397
317.882
317.566
318.665
318.817
318.483
318.979
318.656
318.05
317.952
316.725
311.923
311.153
311.616
312.312
311.78
315.701
314.877
312.184
312.155
311.426
311.374
312.939
311.865
313.044
312.851
314.589
313.153
310.574
311.096
312.118
308.212
307.839
304.415
308.997
306.914
306.968
309.104
306.907
307.948
309.352
307.491
308.755
304.375
306.212
307.845
305.229
308.747
306.515
308.358
306.372
304.75
304.155
303.041
302.889
302.523
303.053
304.471
302.529
303.573
301.565
302.178
305.488
304.056
301.352
301.809
301.882
304.036
305.737
302.682
302.961
)
;

boundaryField
{
    hotSide
    {
        type            fixedGradient;
        gradient        nonuniform List<scalar> 
400
(
321.511
322.87
325.591
329.677
335.133
341.965
350.181
359.788
370.794
383.208
397.037
412.289
428.971
447.088
466.647
487.651
510.105
534.011
559.372
586.191
323.738
325.08
327.767
331.802
337.194
343.949
352.078
361.591
372.498
384.81
398.537
413.687
430.268
448.289
467.755
488.672
511.043
534.872
560.161
586.913
326.149
327.47
330.116
334.091
339.406
346.071
354.099
363.503
374.296
386.491
400.101
415.136
431.606
449.52
468.885
489.706
511.988
535.735
560.948
587.63
328.704
330
332.597
336.503
341.73
348.292
356.205
365.485
376.15
388.215
401.695
416.604
432.954
450.753
470.009
490.73
512.919
536.579
561.714
588.325
331.33
332.599
335.142
338.97
344.099
350.546
358.332
367.477
378.003
389.928
403.271
418.047
434.27
451.949
471.095
491.712
513.807
537.382
562.439
588.978
333.918
335.158
337.643
341.389
346.414
352.74
360.392
369.397
379.779
391.562
404.765
419.407
435.503
453.065
472.101
492.618
514.622
538.114
563.096
589.569
336.321
337.531
339.959
343.622
348.544
354.751
362.274
371.142
381.385
393.031
406.101
420.618
436.595
454.047
472.983
493.409
515.33
538.747
563.663
590.076
338.36
339.543
341.92
345.509
350.339
356.44
363.847
372.595
382.718
394.244
407.2
421.608
437.485
454.844
473.695
494.045
515.897
539.253
564.114
590.478
339.852
341.015
343.352
346.885
351.645
357.665
364.985
373.643
383.675
395.113
407.984
422.312
438.116
455.407
474.197
494.491
516.294
539.606
564.428
590.758
340.643
341.795
344.11
347.613
352.334
358.311
365.584
374.193
384.176
395.567
408.393
422.679
438.443
455.699
474.456
494.722
516.498
539.788
564.589
590.901
340.643
341.795
344.11
347.613
352.334
358.311
365.584
374.193
384.176
395.567
408.393
422.679
438.443
455.699
474.456
494.722
516.498
539.788
564.589
590.901
339.852
341.015
343.352
346.885
351.645
357.665
364.985
373.643
383.675
395.113
407.984
422.312
438.116
455.407
474.197
494.491
516.294
539.606
564.428
590.758
338.36
339.543
341.92
345.509
350.339
356.44
363.847
372.595
382.718
394.244
407.2
421.608
437.485
454.844
473.695
494.045
515.897
539.253
564.114
590.478
336.321
337.531
339.959
343.622
348.544
354.751
362.274
371.142
381.385
393.031
406.101
420.618
436.595
454.047
472.983
493.409
515.33
538.747
563.663
590.076
333.918
335.158
337.643
341.389
346.414
352.74
360.392
369.397
379.779
391.562
404.765
419.407
435.503
453.065
472.101
492.618
514.622
538.114
563.096
589.569
331.33
332.599
335.142
338.97
344.099
350.546
358.332
367.477
378.003
389.928
403.271
418.047
434.27
451.949
471.095
491.712
513.807
537.382
562.439
588.978
328.704
330
332.597
336.503
341.73
348.292
356.205
365.485
376.15
388.215
401.695
416.604
432.954
450.753
470.009
490.73
512.919
536.579
561.714
588.325
326.149
327.47
330.116
334.091
339.406
346.071
354.099
363.503
374.296
386.491
400.101
415.136
431.606
449.52
468.885
489.706
511.988
535.735
560.948
587.63
323.738
325.08
327.767
331.802
337.194
343.949
352.078
361.591
372.498
384.81
398.537
413.687
430.268
448.289
467.755
488.672
511.043
534.872
560.161
586.913
321.511
322.87
325.591
329.677
335.133
341.965
350.181
359.788
370.794
383.208
397.037
412.289
428.971
447.088
466.647
487.651
510.105
534.011
559.372
586.191
)
;
    }
    coldSide
    {
        type            mixed;
        refValue        uniform 300;
        refGradient     uniform 0;
        valueFraction   uniform 0.991591;
        source          uniform 0;
        value           nonuniform List<scalar> 
400
(
300.021
300.004
300.01
300.001
300.028
300.022
300.029
300.002
300.018
300.025
300.016
300.021
300.03
300.027
300.025
300.04
300.028
300.028
299.999
300.04
300.017
300.005
300.016
300.001
300.027
300.024
300.013
300.008
300.002
300.024
300.019
300.023
300.023
300.021
300.024
300.029
300.013
300.022
299.999
300.035