/*--------------------------------*- C++ -*----------------------------------*\
| =========                 |                                                 |
| \\      /  F ield         | OpenFOAM: The Open Source CFD Toolbox           |
|  \\    /   O peration     | Version:  2212                                  |
|   \\  /    A nd           | Website:  www.openfoam.com                      |
|    \\/     M anipulation  |                                                 |
\*---------------------------------------------------------------------------*/
FoamFile
{
    version     2.0;
    format      ascii;
    arch        "LSB;label=32;scalar=64";
    class       volScalarField;
    location    "0";
    object      T;
}
// * * * * * * * * * * * * * * * * * * * * * * * * * * * * * * * * * * * * * //

dimensions      [0 0 0 1 0 0 0];

internalField   nonuniform List<scalar> 
3200
(
345.738
344.318
343.165
342.325
342.285
342.54
342.866
343.22
343.513
343.704
343.552
343.155
342.757
342.037
341.398
340.934
340.625
340.837
341.766
342.978
339.33
338.18
337.172
336.462
336.433
336.645
336.954
337.274
337.526
337.707
337.588
337.246
336.898
336.319
335.756
335.39
335.114
335.307
336.081
337.092
333.049
332.127
331.288
330.715
330.694
330.846
331.135
331.397
331.641
331.802
331.693
331.406
331.099
330.676
330.168
329.893
329.642
329.824
330.449
331.28
326.913
326.165
325.506
325.038
325.003
325.132
325.364
325.607
325.832
325.964
325.827
325.613
325.398
325.063
324.628
324.424
324.218
324.365
324.872
325.52
320.866
320.279
319.774
319.416
319.365
319.483
319.677
319.86
320.045
320.138
320.025
319.88
319.722
319.463
319.151
318.964
318.812
318.925
319.304
319.812
314.888
314.468
314.11
313.831
313.787
313.876
314.029
314.172
314.28
314.368
314.249
314.2
314.073
313.891
313.688
313.535
313.41
313.504
313.769
314.134
308.934
308.678
308.48
308.267
308.274
308.321
308.404
308.523
308.556
308.614
308.541
308.541
308.436
308.324
308.241
308.132
308.06
308.113
308.263
308.498
302.983
302.913
302.84
302.763
302.778
302.794
302.809
302.854
302.866
302.889
302.865
302.864
302.808
302.788
302.774
302.736
302.706
302.722
302.786
302.855
345.999
344.538
343.291
342.666
342.542
342.895
343.324
343.641
344.033
344.117
344.089
343.587
343.277
342.573
341.94
341.242
340.997
341.117
341.995
343.214
339.563
338.374
337.304
336.772
336.655
336.978
337.331
337.622
337.976
338.032
338.034
337.603
337.34
336.731
336.219
335.638
335.45
335.549
336.274
337.284
333.292
332.305
331.415
330.964
330.87
331.146
331.421
331.691
331.995
332.063
332.039
331.698
331.475
330.977
330.545
330.112
329.927
330.016
330.633
331.449
327.117
326.331
325.603
325.227
325.169
325.4
325.578
325.848
326.092
326.14
326.138
325.876
325.69
325.282
324.925
324.61
324.449
324.523
325.028
325.674
321.02
320.437
319.851
319.552
319.523
319.705
319.821
320.077
320.243
320.251
320.285
320.084
319.954
319.621
319.36
319.13
318.978
319.058
319.463
319.935
314.997
314.577
314.144
313.942
313.932
314.051
314.129
314.344
314.444
314.441
314.472
314.323
314.228
314.002
313.807
313.663
313.538
313.594
313.901
314.226
308.991
308.746
308.485
308.363
308.363
308.41
308.469
308.622
308.683
308.666
308.675
308.603
308.548
308.393
308.296
308.214
308.137
308.149
308.352
308.547
303.017
302.926
302.843
302.803
302.814
302.82
302.835
302.895
302.914
302.906
302.907
302.881
302.874
302.814
302.793
302.759
302.726
302.748
302.802
302.869
346.582
345.076
343.818
343.285
343.273
343.534
343.992
344.382
344.838
344.949
345.03
344.641
344.179
343.434
342.735
341.949
341.595
341.789
342.576
343.77
340.063
338.83
337.746
337.288
337.284
337.514
337.903
338.246
338.675
338.726
338.821
338.48
338.115
337.507
336.935
336.23
335.96
336.133
336.797
337.81
333.692
332.684
331.778
331.388
331.388
331.594
331.889
332.21
332.602
332.597
332.701
332.401
332.127
331.641
331.173
330.59
330.381
330.511
331.083
331.911
327.413
326.61
325.888
325.551
325.596
325.757
325.972
326.251
326.606
326.565
326.674
326.416
326.192
325.83
325.438
325.007
324.84
324.93
325.401
326.047
321.214
320.63
320.047
319.805
319.875
319.965
320.134
320.358
320.636
320.588
320.678
320.505
320.326
320.072
319.738
319.42
319.291
319.385
319.714
320.224
315.106
314.727
314.277
314.119
314.19
314.217
314.354
314.527
314.724
314.666
314.733
314.632
314.504
314.315
314.093
313.858
313.768
313.847
314.042
314.431
309.053
308.835
308.555
308.478
308.528
308.51
308.606
308.729
308.829
308.802
308.823
308.783
308.688
308.593
308.469
308.312
308.266
308.311
308.424
308.665
303.026
302.952
302.863
302.843
302.852
302.846
302.895
302.936
302.953
302.948
302.957
302.94
302.908
302.872
302.834
302.793
302.777
302.789
302.814
302.899
347.294
345.854
344.642
344.177
344.147
344.533
344.862
345.485
345.947
346.122
346.088
345.813
345.301
344.691
343.745
342.868
342.609
342.731
343.618
344.744
340.69
339.495
338.464
338.067
338.026
338.387
338.669
339.202
339.607
339.751
339.757
339.52
339.124
338.591
337.803
337.039
336.834
336.958
337.723
338.628
334.219
333.239
332.403
332.05
332.02
332.329
332.577
333.008
333.377
333.471
333.506
333.306
332.999
332.567
331.906
331.255
331.083
331.215
331.858
332.582
327.86
327.071
326.407
326.114
326.105
326.373
326.55
326.903
327.216
327.274
327.336
327.173
326.924
326.582
326.058
325.5
325.37
325.521
326.014
326.589
321.589
320.978
320.481
320.241
320.268
320.457
320.588
320.883
321.116
321.164
321.224
321.094
320.878
320.645
320.228
319.79
319.699
319.842
320.192
320.638
315.371
314.943
314.587
314.428
314.475
314.57
314.668
314.895
315.074
315.104
315.133
315.059
314.898
314.736
314.449
314.117
314.055
314.187
314.419
314.726
309.217
308.946
308.735
308.668
308.688
308.721
308.781
308.954
309.061
309.066
309.087
309.033
308.942
308.84
308.678
308.467
308.427
308.532
308.646
308.838
303.086
302.992
302.921
302.909
302.912
302.923
302.935
303.002
303.05
303.032
303.046
303.023
302.999
302.964
302.912
302.835
302.818
302.873
302.899
302.958
348.406
347.069
345.918
345.424
345.316
345.645
346.053
346.634
347.132
347.385
347.459
347.285
346.611
345.845
345.059
344.143
343.799
343.936
344.621
345.851
341.623
340.554
339.561
339.158
339.03
339.353
339.683
340.188
340.63
340.854
340.911
340.792
340.224
339.587
338.916
338.109
337.839
338.003
338.573
339.589
334.968
334.128
333.304
332.985
332.885
333.165
333.409
333.832
334.205
334.418
334.454
334.376
333.912
333.401
332.859
332.151
331.919
332.109
332.575
333.411
328.437
327.806
327.144
326.883
326.815
327.04
327.227
327.577
327.896
328.071
328.089
328.018
327.671
327.254
326.813
326.249
326.035
326.245
326.599
327.269
322.028
321.549
321.051
320.85
320.802
320.96
321.094
321.381
321.658
321.784
321.794
321.729
321.485
321.136
320.789
320.378
320.23
320.396
320.66
321.156
315.685
315.352
315.003
314.856
314.814
314.926
315.028
315.209
315.47
315.545
315.535
315.493
315.323
315.086
314.821
314.548
314.428
314.547
314.749
315.106
309.4
309.211
308.982
308.902
308.885
308.945
308.998
309.111
309.296
309.337
309.319
309.288
309.194
309.046
308.886
308.73
308.659
308.728
308.852
309.063
303.148
303.082
303
302.976
302.967
302.989
303.015
303.057
303.132
303.126
303.119
303.108
303.091
303.029
302.978
302.926
302.892
302.924
302.954
303.032
349.56
348.377
347.136
346.713
346.55
346.976
347.337
348.016
348.494
348.871
348.942
348.618
348.046
347.276
346.333
345.709
345.313
345.427
345.996
347.227
342.631
341.692
340.616
340.264
340.13
340.507
340.787
341.376
341.806
342.137
342.21
341.928
341.458
340.794
339.997
339.484
339.163
339.272
339.759
340.765
335.866
335.104
334.201
333.928
333.809
334.121
334.356
334.841
335.236
335.513
335.566
335.33
334.952
334.396
333.731
333.33
333.06
333.149
333.561
334.381
329.202
328.621
327.865
327.662
327.569
327.808
327.997
328.412
328.736
328.964
329.006
328.823
328.52
328.061
327.519
327.214
327.016
327.051
327.393
328.043
322.614
322.192
321.607
321.458
321.383
321.571
321.704
322.049
322.295
322.483
322.516
322.362
322.146
321.785
321.328
321.137
320.988
320.99
321.252
321.745
316.123
315.81
315.41
315.277
315.247
315.385
315.471
315.735
315.903
316.037
316.051
315.944
315.82
315.558
315.192
315.083
314.982
314.937
315.151
315.515
309.667
309.471
309.23
309.143
309.159
309.227
309.275
309.444
309.553
309.614
309.64
309.577
309.504
309.338
309.103
309.061
308.991
308.941
309.085
309.31
303.238
303.179
303.081
303.055
303.068
303.097
303.105
303.169
303.195
303.225
303.236
303.204
303.185
303.135
303.044
303.029
303.02
302.987
303.037
303.115
351.086
349.888
348.671
348.23
348.204
348.406
348.829
349.451
350.049
350.4
350.59
350.304
349.734
348.874
347.898
347.393
346.948
347.089
347.679
348.802
343.949
342.962
341.945
341.561
341.541
341.695
342.086
342.631
343.141
343.436
343.626
343.378
342.925
342.175
341.322
340.95
340.602
340.712
341.179
342.131
336.945
336.156
335.345
334.997
334.954
335.087
335.449
335.908
336.355
336.586
336.77
336.551
336.162
335.56
334.849
334.562
334.288
334.378
334.739
335.53
330.07
329.438
328.799
328.533
328.479
328.59
328.889
329.282
329.652
329.827
329.976
329.817
329.463
329.039
328.431
328.214
328.016
328.092
328.351
328.982
323.289
322.837
322.323
322.156
322.083
322.171
322.393
322.726
323.016
323.131
323.249
323.122
322.844
322.568
322.074
321.915
321.767
321.835
321.998
322.498
316.615
316.282
315.909
315.813
315.727
315.823
315.973
316.203
316.415
316.488
316.587
316.478
316.288
316.112
315.767
315.638
315.538
315.582
315.701
316.079
309.966
309.767
309.553
309.497
309.424
309.51
309.603
309.716
309.854
309.905
309.954
309.879
309.752
309.675
309.463
309.375
309.317
309.342
309.432
309.663
303.339
303.267
303.194
303.18
303.16
303.181
303.218
303.248
303.299
303.321
303.333
303.306
303.264
303.233
303.176
303.139
303.127
303.127
303.158
303.237
352.653
351.368
350.379
349.77
349.692
349.943
350.43
351.014
351.588
351.957
352.235
351.928
351.311
350.482
349.522
349.125
348.66
348.752
349.506
350.527
345.265
344.228
343.413
342.881
342.805
343.049
343.473
343.987
344.477
344.802
345.037
344.804
344.26
343.571
342.753
342.455
342.03
342.129
342.779
343.636
338.049
337.214
336.577
336.101
336.019
336.24
336.627
337.06
337.459
337.756
337.933
337.751
337.3
336.739
336.072
335.829
335.465
335.563
336.106
336.826
330.968
330.311
329.836
329.424
329.333
329.532
329.873
330.219
330.54
330.79
330.925
330.785
330.429
329.984
329.44
329.234
328.965
329.062
329.465
330.062
324.024
323.496
323.153
322.826
322.719
322.898
323.167
323.445
323.699
323.885
323.996
323.88
323.609
323.275
322.868
322.691
322.499
322.585
322.873
323.311
317.132
316.745
316.526
316.271
316.172
316.322
316.523
316.711
316.883
317.047
317.111
317.036
316.825
316.592
316.329
316.179
316.059
316.114
316.318
316.606
310.289
310.051
309.914
309.77
309.679
309.779
309.905
310.014
310.12
310.239
310.249
310.223
310.095
309.943
309.802
309.702
309.648
309.657
309.784
309.964
303.452
303.373
303.315
303.276
303.237
303.281
303.316
303.354
303.387
303.432
303.437
303.436
303.381
303.323
303.279
303.261
303.238
303.223
303.274
303.34
354.298
353.066
352.195
351.581
351.449
351.495
352.001
352.486
353.244
353.553
353.749
353.62
353.037
352.215
351.423
350.826
350.502
350.601
351.238
352.332
346.707
345.686
344.979
344.457
344.333
344.386
344.818
345.244
345.9
346.15
346.347
346.242
345.783
345.068
344.394
343.899
343.629
343.705
344.269
345.188
339.276
338.458
337.888
337.43
337.328
337.384
337.762
338.124
338.666
338.87
339.063
338.972
338.615
338.017
337.446
337.045
336.808
336.878
337.345
338.115
331.974
331.324
330.881
330.506
330.411
330.47
330.782
331.084
331.527
331.682
331.841
331.792
331.521
331.016
330.551
330.241
330.054
330.109
330.496
331.098
324.796
324.294
323.919
323.681
323.58
323.622
323.879
324.11
324.476
324.586
324.729
324.675
324.481
324.077
323.732
323.487
323.337
323.397
323.68
324.125
317.693
317.319
317.035
316.9
316.816
316.839
317.027
317.197
317.463
317.549
317.655
317.604
317.464
317.175
316.944
316.736
316.66
316.693
316.884
317.208
310.622
310.384
310.21
310.142
310.082
310.085
310.223
310.328
310.477
310.526
310.605
310.562
310.485
310.314
310.17
310.034
309.988
310.029
310.132
310.317
303.573
303.473
303.419
303.402
303.381
303.381
303.412
303.464
303.509
303.525
303.553
303.54
303.505
303.456
303.41
303.364
303.342
303.372
303.398
303.458
356.069
354.992
354.132
353.52
353.3
353.352
353.712
354.241
354.809
355.202
355.422
355.359
354.732
353.901
353.159
352.577
352.359
352.402
353.128
354.176
348.262
347.39
346.66
346.125
345.939
345.976
346.299
346.759
347.26
347.597
347.803
347.773
347.2
346.506
345.896
345.408
345.221
345.251
345.892
346.776
340.599
339.898
339.305
338.84
338.709
338.721
339.019
339.399
339.819
340.088
340.267
340.273
339.793
339.2
338.726
338.333
338.164
338.179
338.723
339.461
333.069
332.521
332.052
331.642
331.528
331.545
331.829
332.105
332.479
332.681
332.825
332.849
332.445
331.971
331.629
331.287
331.162
331.196
331.626
332.202
325.628
325.231
324.863
324.546
324.44
324.455
324.701
324.898
325.215
325.349
325.475
325.462
325.155
324.832
324.566
324.288
324.209
324.252
324.562
325.024
318.26
318.003
317.727
317.499
317.415
317.435
317.63
317.744
317.992
318.071
318.166
318.152
317.929
317.73
317.522
317.302
317.295
317.3
317.522
317.841
310.955
310.807
310.623
310.508
310.449
310.441
310.587
310.637
310.801
310.843
310.888
310.888
310.762
310.644
310.501
310.375
310.389
310.397
310.509
310.682
303.666
303.62
303.549
303.52
303.499
303.499
303.555
303.566
303.618
303.623
303.641
303.648
303.604
303.568
303.519
303.484
303.481
303.478
303.524
303.576
358.061
357.009
355.856
355.31
355.16
355.157
355.458
355.991
356.5
356.803
357.036
356.892
356.304
355.701
354.958
354.549
354.237
354.298
355.013
355.982
349.984
349.128
348.147
347.685
347.546
347.551
347.819
348.301
348.734
348.977
349.199
349.105
348.593
348.069
347.452
347.102
346.831
346.91
347.521
348.328
342.043
341.385
340.573
340.156
340.06
340.03
340.287
340.699
341.049
341.274
341.457
341.423
340.964
340.519
340.026
339.73
339.493
339.586
340.112
340.774
334.233
333.725
333.085
332.76
332.655
332.621
332.833
333.179
333.447
333.686
333.819
333.804
333.39
333.055
332.668
332.429
332.23
332.324
332.75
333.262
326.53
326.152
325.674
325.423
325.298
325.28
325.451
325.731
325.944
326.156
326.213
326.242
325.888
325.638
325.361
325.175
325.031
325.1
325.433
325.822
318.887
318.662
318.307
318.135
318.034
317.999
318.136
318.351
318.475
318.667
318.689
318.712
318.44
318.284
318.117
317.954
317.875
317.926
318.16
318.404
311.315
311.197
310.987
310.878
310.827
310.773
310.882
311.021
311.071
311.203
311.213
311.224
311.034
310.973
310.88
310.783
310.726
310.757
310.901
311.029
303.792
303.75
303.685
303.646
303.633
303.597
303.644
303.692
303.717
303.758
303.765
303.758
303.696
303.674
303.641
303.62
303.594
303.599
303.657
303.702
359.909
358.857
357.733
357.159
356.898
356.925
357.285
357.745
358.084
358.383
358.6
358.414
357.983
357.356
356.687
356.424
356.165
356.341
357.116
358.02
351.587
350.703
349.752
349.274
349.042
349.062
349.39
349.789
350.096
350.353
350.532
350.382
350.056
349.515
348.944
348.739
348.51
348.645
349.351
350.101
343.413
342.695
341.913
341.482
341.293
341.336
341.601
341.966
342.212
342.43
342.571
342.471
342.192
341.759
341.283
341.129
340.92
341.041
341.645
342.264
335.381
334.797
334.183
333.781
333.676
333.714
333.901
334.22
334.407
334.601
334.687
334.646
334.413
334.039
333.7
333.562
333.398
333.508
334.02
334.494
327.443
326.983
326.549
326.195
326.126
326.169
326.301
326.555
326.673
326.845
326.89
326.884
326.693
326.408
326.183
326.069
325.937
325.997
326.433
326.779
319.563
319.236
318.96
318.673
318.617
318.682
318.747
318.951
319.021
319.152
319.177
319.176
319.015
318.828
318.697
318.605
318.51
318.553
318.874
319.089
311.73
311.552
311.373
311.199
311.164
311.219
311.24
311.369
311.429
311.504
311.51
311.51
311.393
311.285
311.219
311.162
311.097
311.15
311.354
311.447
303.918
303.871
303.807
303.758
303.743
303.753
303.763
303.804
303.831
303.862
303.865
303.853
303.812
303.782
303.758
303.741
303.718
303.738
303.806
303.83
361.809
360.812
359.769
359.078
358.778
358.686
358.975
359.309
359.66
359.95
360.15
359.918
359.691
358.998
358.574
358.225
358.028
358.433
359.106
360.044
353.25
352.416
351.528
350.928
350.685
350.603
350.853
351.153
351.456
351.701
351.895
351.69
351.509
350.911
350.569
350.299
350.11
350.45
351.052
351.848
344.835
344.142
343.401
342.914
342.695
342.637
342.861
343.112
343.372
343.581
343.744
343.565
343.434
342.922
342.656
342.455
342.291
342.58
343.081
343.703
336.519
335.995
335.394
335.008
334.809
334.761
334.923
335.178
335.37
335.548
335.69
335.525
335.424
335.012
334.809
334.648
334.521
334.785
335.169
335.652
328.317
327.908
327.459
327.184
327.011
326.989
327.067
327.293
327.462
327.583
327.7
327.553
327.489
327.165
327.026
326.902
326.807
327.001
327.314
327.669
320.183
319.897
319.602
319.404
319.275
319.252
319.301
319.479
319.592
319.666
319.755
319.653
319.623
319.37
319.279
319.2
319.128
319.249
319.496
319.755
312.111
311.945
311.76
311.65
311.559
311.546
311.575
311.693
311.758
311.805
311.853
311.806
311.776
311.613
311.562
311.531
311.488
311.538
311.683
311.855
304.061
304.014
303.935
303.909
303.872
303.863
303.885
303.918
303.931
303.956
303.969
303.959
303.944
303.887
303.878
303.862
303.857
303.851
303.91
303.964
363.96
362.839
361.803
361.151
360.769
360.616
360.726
361.029
361.281
361.481
361.562
361.516
361.228
360.753
360.368
360.157
360.12
360.459
361.165
361.985
355.093
354.179
353.269
352.706
352.407
352.258
352.358
352.624
352.88
353.032
353.133
353.06
352.855
352.431
352.092
351.946
351.917
352.236
352.843
353.53
346.383
345.647
344.868
344.41
344.154
344.034
344.115
344.373
344.56
344.696
344.813
344.718
344.578
344.212
343.925
343.823
343.789
344.105
344.583
345.16
337.794
337.222
336.564
336.211
335.989
335.902
335.959
336.214
336.353
336.456
336.56
336.476
336.384
336.082
335.847
335.799
335.739
336.042
336.377
336.868
329.308
328.889
328.336
328.111
327.913
327.849
327.901
328.118
328.211
328.315
328.391
328.311
328.235
328.002
327.818
327.805
327.762
327.998
328.224
328.623
320.913
320.598
320.201
320.063
319.911
319.863
319.907
320.047
320.117
320.202
320.258
320.205
320.157
319.975
319.848
319.845
319.814
319.988
320.147
320.417
312.564
312.352
312.122
312.044
311.939
311.936
311.946
312.033
312.069
312.118
312.146
312.134
312.089
311.994
311.891
311.902
311.882
311.988
312.075
312.248
304.201
304.135
304.054
304.026
303.999
304.005
303.993
304.035
304.035
304.064
304.069
304.066
304.046
304.024
303.978
303.99
303.978
304.022
304.037
304.106
365.888
364.741
363.769
363.109
362.808
362.597
362.505
362.815
362.938
363.141
363.163
363.136
362.794
362.472
362.129
361.976
361.987
362.56
363.178
363.976
356.768
355.795
354.971
354.406
354.17
353.984
353.907
354.185
354.289
354.463
354.495
354.465
354.194
353.926
353.643
353.52
353.541
354.047
354.559
355.238
347.787
346.995
346.316
345.842
345.66
345.469
345.453
345.662
345.736
345.896
345.951
345.898
345.67
345.491
345.246
345.158
345.174
345.6
346.026
346.59
338.92
338.317
337.778
337.377
337.243
337.061
337.054
337.242
337.305
337.448
337.48
337.406
337.246
337.101
336.927
336.866
336.865
337.239
337.58
338.026
330.176
329.714
329.31
329
328.887
328.75
328.749
328.93
328.952
329.063
329.101
329.025
328.905
328.773
328.667
328.619
328.634
328.899
329.169
329.521
321.513
321.178
320.905
320.659
320.593
320.485
320.508
320.659
320.644
320.73
320.751
320.692
320.6
320.525
320.464
320.406
320.438
320.609
320.819
321.057
312.903
312.71
312.539
312.395
312.368
312.271
312.307
312.41
312.386
312.437
312.448
312.422
312.35
312.333
312.281
312.242
312.249
312.373
312.488
312.619
304.324
304.261
304.2
304.159
304.149
304.114
304.112
304.156
304.143
304.159
304.163
304.163
304.135
304.138
304.124
304.104
304.1
304.133
304.186
304.226
367.829
366.716
365.82
364.956
364.665
364.345
364.297
364.509
364.674
364.585
364.777
364.608
364.464
364.157
363.91
363.842
363.952
364.34
365.082
365.956
358.456
357.514
356.764
356
355.757
355.479
355.453
355.644
355.793
355.726
355.899
355.751
355.655
355.351
355.183
355.115
355.217
355.573
356.22
356.951
349.222
348.438
347.837
347.186
346.991
346.742
346.738
346.897
347.013
346.977
347.147
347.01
346.95
346.66
346.556
346.48
346.583
346.898
347.431
348.039
340.092
339.475
339.015
338.475
338.33
338.121
338.12
338.249
338.374
338.317
338.47
338.363
338.321
338.075
338
337.919
338.017
338.285
338.71
339.19
331.063
330.611
330.262
329.848
329.747
329.598
329.576
329.692
329.77
329.744
329.877
329.802
329.758
329.56
329.504
329.434
329.516
329.72
330.049
330.405
322.135
321.824
321.574
321.272
321.205
321.105
321.096
321.176
321.24
321.221
321.325
321.279
321.238
321.088
321.065
321.002
321.078
321.204
321.423
321.674
313.276
313.093
312.933
312.751
312.723
312.662
312.649
312.703
312.737
312.75
312.792
312.776
312.746
312.672
312.642
312.617
312.65
312.705
312.834
313.005
304.44
304.388
304.319
304.277
304.261
304.245
304.234
304.26
304.265
304.276
304.289
304.294
304.272
304.245
304.236
304.232
304.237
304.253
304.303
304.353
369.751
368.721
367.7
366.828
366.465
366.199
366.074
366.138
366.305
366.336
366.402
366.29
366.014
365.797
365.717
365.769
365.753
366.292
367.018
367.837
360.083
359.222
358.361
357.618
357.323
357.093
356.976
357.049
357.191
357.232
357.306
357.207
356.962
356.807
356.71
356.812
356.776
357.255
357.878
358.549
350.577
349.881
349.172
348.541
348.301
348.09
348.002
348.112
348.214
348.259
348.326
348.225
348.032
347.922
347.829
347.949
347.907
348.308
348.837
349.371
341.203
340.678
340.133
339.578
339.402
339.174
339.153
339.237
339.348
339.378
339.428
339.334
339.189
339.111
339.009
339.158
339.095
339.426
339.877
340.278
331.948
331.562
331.141
330.706
330.585
330.372
330.391
330.447
330.527
330.57
330.605
330.526
330.414
330.361
330.265
330.392
330.358
330.616
330.982
331.243
322.782
322.498
322.219
321.909
321.815
321.653
321.674
321.706
321.78
321.812
321.832
321.77
321.708
321.658
321.58
321.698
321.664
321.845
322.135
322.287
313.66
313.488
313.334
313.134
313.089
312.976
312.991
313.034
313.065
313.095
313.118
313.059
313.021
312.978
312.931
313.032
312.987
313.099
313.288
313.386
304.576
304.522
304.461
304.392
304.382
304.35
304.348
304.371
304.371
304.386
304.389
304.368
304.359
304.344
304.333
304.369
304.348
304.383
304.456
304.486
371.713
370.727
369.561
368.787
368.224
367.985
367.655
367.812
367.835
367.849
367.891
367.887
367.53
367.348
367.523
367.561
367.626
368.254
369.011
369.84
361.788
360.984
359.949
359.29
358.817
358.624
358.328
358.49
358.514
358.53
358.58
358.573
358.244
358.136
358.286
358.347
358.401
358.934
359.615
360.283
352.012
351.378
350.509
349.941
349.541
349.379
349.166
349.282
349.311
349.334
349.387
349.365
349.092
349.042
349.154
349.241
349.278
349.7
350.3
350.851
342.374
341.871
341.197
340.702
340.375
340.239
340.082
340.178
340.215
340.218
340.299
340.245
340.049
340.008
340.105
340.216
340.212
340.554
341.044
341.492
332.875
332.466
331.962
331.552
331.307
331.201
331.107
331.178
331.227
331.197
331.297
331.204
331.091
331.037
331.114
331.226
331.222
331.476
331.858
332.197
323.46
323.136
322.785
322.505
322.327
322.235
322.191
322.237
322.279
322.241
322.341
322.24
322.186
322.116
322.175
322.31
322.275
322.449
322.724
322.983
314.076
313.87
313.66
313.501
313.395
313.338
313.322
313.337
313.375
313.346
313.408
313.333
313.319
313.256
313.294
313.402
313.355
313.47
313.626
313.798
304.717
304.639
304.569
304.522
304.488
304.467
304.464
304.472
304.473
304.457
304.494
304.456
304.47
304.449
304.461
304.497
304.481
304.509
304.562
304.624
373.326
372.383
371.327
370.55
370.037
369.647
369.481
369.369
369.305
369.231
369.291
369.135
369.07
368.881
368.936
369.27
369.425
369.86
370.782
371.703
363.138
362.364
361.458
360.789
360.374
360.038
359.885
359.833
359.763
359.698
359.764
359.634
359.565
359.412
359.477
359.782
359.938
360.276
361.109
361.875
353.126
352.517
351.733
351.168
350.853
350.558
350.42
350.444
350.365
350.285
350.366
350.275
350.183
350.076
350.132
350.413
350.556
350.806
351.528
352.176
343.269
342.8
342.173
341.699
341.448
341.219
341.098
341.153
341.084
340.976
341.05
341.016
340.919
340.827
340.88
341.152
341.279
341.436
342.042
342.558
333.523
333.191
332.72
332.327
332.132
331.97
331.879
331.944
331.884
331.774
331.834
331.825
331.761
331.694
331.74
331.949
332.052
332.175
332.625
333.032
323.888
323.665
323.351
323.047
322.891
322.797
322.733
322.768
322.754
322.657
322.721
322.701
322.654
322.615
322.636
322.803
322.884
322.958
323.275
323.567
314.323
314.178
313.998
313.822
313.726
313.668
313.652
313.642
313.66
313.601
313.637
313.621
313.588
313.566
313.578
313.685
313.747
313.763
313.972
314.132
304.806
304.752
304.681
304.631
304.592
304.576
304.571
304.565
304.571
304.553
304.567
304.57
304.552
304.543
304.556
304.592
304.603
304.619
304.682
304.73
374.761
373.718
372.715
371.918
371.325
370.912
370.634
370.486
370.454
370.168
370.307
370.18
370.202
370.007
370.14
370.405
370.797
371.425
372.289
373.144
364.275
363.451
362.599
361.899
361.448
361.068
360.841
360.732
360.698
360.45
360.612
360.469
360.492
360.342
360.462
360.679
361.027
361.575
362.346
363.082
354.004
353.387
352.69
352.057
351.722
351.406
351.241
351.129
351.119
350.902
351.053
350.919
350.927
350.821
350.933
351.116
351.407
351.863
352.539
353.165
343.932
343.493
342.908
342.38
342.131
341.887
341.79
341.666
341.676
341.495
341.623
341.501
341.492
341.411
341.525
341.656
341.918
342.268
342.842
343.346
334.021
333.721
333.256
332.843
332.647
332.476
332.431
332.322
332.322
332.178
332.304
332.189
332.166
332.116
332.244
332.305
332.528
332.767
333.235
333.628
324.229
324.045
323.738
323.409
323.263
323.17
323.14
323.057
323.027
322.951
323.045
322.964
322.931
322.916
323.006
323.054
323.207
323.363
323.709
323.955
314.522
314.434
314.241
314.024
313.965
313.895
313.882
313.826
313.804
313.785
313.822
313.768
313.753
313.753
313.812
313.841
313.91
314.012
314.238
314.376
304.854
304.846
304.77
304.699
304.679
304.655
304.648
304.623
304.622
304.619
304.635
304.618
304.611
304.601
304.628
304.633
304.643
304.696
304.766
304.817
)
;

boundaryField
{
    hotSide
    {
        type            fixedGradient;
        gradient        nonuniform List<scalar> 
400
(
527.563
529.577
534.893
543.435
554.893
568.821
584.738
602.201
620.842
640.368
660.557
681.239
702.29
723.62
745.166
766.882
788.742
810.727
832.827
855.037
503.043
505.271
511.032
520.232
532.498
547.303
564.095
582.387
601.785
621.984
642.758
663.941
685.414
707.095
728.928
750.88
772.93
795.07
817.299
839.617
487.002
489.722
495.942
505.561
518.208
533.362
550.475
569.057
588.71
609.124
630.069
651.378
672.933
694.657
716.498
738.429
760.437
782.521
804.686
826.937
478.931
482.397
489.104
498.95
511.619
526.667
543.61
561.997
581.444
601.646
622.368
643.441
664.746
686.205
707.772
729.425
751.156
772.971
794.879
816.891
476.735
481.084
488.338
498.39
510.984
525.761
542.317
560.257
579.227
598.934
619.148
639.701
660.478
681.405
702.446
723.585
744.824
766.173
787.648
809.265
478.042
483.318
491.198
501.567
514.203
528.803
545.023
562.514
580.951
600.058
619.619
639.475
659.527
679.719
700.03
720.462
741.029
761.753
782.654
803.752
480.935
487.129
495.712
506.551
519.435
534.084
550.177
567.383
585.392
603.937
622.818
641.9
661.112
680.433
699.873
719.461
739.233
759.223
779.459
799.963
483.99
491.054
500.379
511.822
525.161
540.111
556.342
573.508
591.282
609.392
627.65
645.954
664.283
682.668
701.169
719.852
738.78
758.001
777.551
797.451
486.124
493.945
503.986
516.089
530.022
545.478
562.09
579.464
597.226
615.073
632.821
650.413
667.896
685.374
702.969
720.793
738.932
757.449
776.381
795.748
486.509
494.883
505.498
518.192
532.72
548.751
565.873
583.627
601.566
619.336
636.748
653.794
670.6
687.353
704.234
721.395
738.941
756.94
775.428
794.419
484.577
493.201
504.12
517.175
532.113
548.583
566.142
584.278
602.482
620.352
637.69
654.523
671.033
687.458
704.021
720.892
738.187
755.974
774.289
793.142
480.109
488.61
499.48
512.555
527.578
544.189
561.932
580.286
598.734
616.867
634.478
651.583
668.355
685.025
701.813
718.887
736.366
754.319
772.786
791.778
473.318
481.329
491.803
504.576
519.384
535.863
553.565
571.997
590.68
609.234
627.444
645.277
662.835
680.287
697.811
715.553
733.626
752.102
771.027
790.421
464.89
472.113
481.948
494.232
508.694
524.966
542.608
561.156
580.173
599.306
618.328
637.148
655.786
674.331
692.901
711.608
730.549
749.797
769.402
789.394
455.986
462.224
471.306
483.078
497.254
513.441
531.186
550.025
569.536
589.372
609.292
629.16
648.933
668.634
688.326
708.086
727.993
748.113
768.498
789.185
448.293
453.444
461.767
473.115
487.164
503.466
521.514
540.813
560.927
581.503
602.287
623.115
643.907
664.645
685.354
706.084
726.896
747.849
768.995
790.372
444.121
448.187
455.801
466.821
480.863
497.386
515.805
535.577
556.24
577.438
598.909
620.481
642.056
663.593
685.096
706.595
728.14
749.783
771.575
793.55
446.322
449.443
456.407
467.08
481.016
497.593
516.161
536.141
557.06
578.563
600.391
622.372
644.399
666.42
688.424
710.428
732.47
754.597
776.853
799.269
457.443
459.911
466.267
476.387
489.827
505.961
524.141
543.793
564.458
585.786
607.523
629.495
651.588
673.739
695.922
718.142
740.422
762.797
785.303
807.962
478.205
480.352
486.129
495.437
507.907
523.011
540.183
558.907
578.754
599.39
620.565
642.099
663.869
685.798
707.843
729.992
752.25
774.635
797.166
819.855
)
;
    }
    coldSide
    {
        type            mixed;
        refValue        uniform 300;
        refGradient     uniform 0;
        valueFraction   uniform 0.991591;
        source          uniform 0;
        value           nonuniform List<scalar> 
400
(
300.025
300.025
300.025
300.026
300.026
300.027
300.028
300.029
300.03
300.031
300.032
300.033
300.034
300.035
300.036
300.037
300.038
300.04
300.04
300.041
300.024
300.025
300.025
300.025
300.026
300.027
300.027
300.028
300.029
300.03
300.032
300.033
300.034
300.035
300.036