/*--------------------------------*- C++ -*----------------------------------*\
| =========                 |                                                 |
| \\      /  F ield         | OpenFOAM: The Open Source CFD Toolbox           |
|  \\    /   O peration     | Version:  2212                                  |
|   \\  /    A nd           | Website:  www.openfoam.com                      |
|    \\/     M anipulation  |                                                 |
\*---------------------------------------------------------------------------*/
FoamFile
{
    version     2.0;
    format      ascii;
    arch        "LSB;label=32;scalar=64";
    class       volScalarField;
    location    "0";
    object      T;
}
// * * * * * * * * * * * * * * * * * * * * * * * * * * * * * * * * * * * * * //

dimensions      [0 0 0 1 0 0 0];

internalField   nonuniform List<scalar> 
3200
(
321.075
321.231
321.947
321.975
321.95
321.961
321.866
322.097
321.898
321.596
321.354
321.019
320.917
320.601
320.174
320.028
319.409
318.95
318.599
318.114
318.406
318.542
319.185
319.199
319.193
319.226
319.119
319.285
319.187
318.904
318.675
318.349
318.353
318.049
317.646
317.526
316.999
316.563
316.317
315.839
315.705
315.757
316.33
316.387
316.385
316.375
316.271
316.395
316.366
316.155
315.925
315.654
315.665
315.437
315.061
314.951
314.508
314.118
313.927
313.493
312.999
312.954
313.432
313.522
313.547
313.482
313.357
313.495
313.492
313.367
313.089
312.92
312.894
312.728
312.458
312.329
311.945
311.584
311.419
311.07
310.185
310.149
310.51
310.576
310.629
310.536
310.444
310.528
310.542
310.529
310.24
310.147
310.085
309.945
309.793
309.684
309.36
309.002
308.889
308.628
307.328
307.294
307.556
307.596
307.6
307.543
307.457
307.537
307.531
307.595
307.352
307.312
307.218
307.144
307.067
306.968
306.739
306.464
306.355
306.18
304.426
304.424
304.584
304.555
304.56
304.539
304.48
304.537
304.546
304.576
304.429
304.416
304.328
304.307
304.267
304.227
304.064
303.878
303.821
303.73
301.492
301.5
301.534
301.518
301.518
301.502
301.506
301.526
301.52
301.53
301.469
301.474
301.468
301.444
301.446
301.416
301.362
301.285
301.274
301.239
321.904
322.247
322.715
322.645
322.921
322.654
322.759
322.829
322.523
322.617
322.364
321.804
321.909
321.59
321.103
320.762
320.317
319.789
319.361
318.965
319.102
319.383
319.834
319.769
320.018
319.738
319.84
319.933
319.638
319.766
319.483
319.042
319.139
318.891
318.434
318.169
317.764
317.272
316.93
316.572
316.241
316.493
316.879
316.794
317.034
316.757
316.836
316.987
316.677
316.801
316.578
316.198
316.315
316.055
315.732
315.478
315.125
314.69
314.471
314.079
313.334
313.545
313.882
313.799
313.978
313.741
313.82
313.977
313.704
313.818
313.642
313.312
313.431
313.176
312.947
312.735
312.46
312.062
311.943
311.567
310.41
310.557
310.832
310.737
310.892
310.722
310.755
310.898
310.716
310.756
310.673
310.401
310.499
310.295
310.128
309.958
309.707
309.391
309.358
308.99
307.454
307.555
307.797
307.651
307.789
307.696
307.7
307.799
307.665
307.696
307.656
307.445
307.537
307.386
307.289
307.144
306.959
306.705
306.694
306.42
304.487
304.555
304.708
304.567
304.68
304.633
304.62
304.698
304.579
304.61
304.634
304.454
304.52
304.478
304.404
304.302
304.173
304.044
304.04
303.851
301.519
301.517
301.601
301.528
301.558
301.557
301.554
301.581
301.543
301.538
301.559
301.49
301.489
301.494
301.485
301.428
301.39
301.375
301.356
301.287
323.155
323.424
323.713
323.638
323.93
323.978
323.994
323.971
323.696
323.628
323.45
323.128
323.047
322.662
322.235
321.759
321.204
320.877
320.56
319.772
320.208
320.393
320.643
320.593
320.833
320.875
320.909
320.86
320.667
320.627
320.415
320.13
320.067
319.783
319.411
318.986
318.484
318.211
317.922
317.234
317.181
317.319
317.538
317.522
317.763
317.752
317.753
317.745
317.556
317.56
317.34
317.082
317.103
316.842
316.549
316.177
315.709
315.474
315.284
314.623
314.104
314.192
314.428
314.404
314.644
314.554
314.574
314.596
314.441
314.428
314.187
314.052
314.075
313.858
313.648
313.346
312.892
312.732
312.588
311.994
311.036
311.073
311.244
311.213
311.46
311.341
311.313
311.403
311.272
311.263
311.074
310.971
310.988
310.805
310.668
310.437
310.021
309.922
309.841
309.363
307.946
307.911
308.077
308.026
308.234
308.122
308.099
308.21
308.084
308.052
307.972
307.854
307.867
307.739
307.698
307.466
307.148
307.089
307.053
306.694
304.784
304.762
304.866
304.819
304.945
304.894
304.864
304.965
304.861
304.824
304.801
304.731
304.683
304.651
304.675
304.5
304.306
304.28
304.278
304.048
301.598
301.597
301.645
301.615
301.653
301.621
301.617
301.673
301.641
301.613
301.612
301.601
301.547
301.558
301.568
301.506
301.461
301.421
301.442
301.357
324.4
324.332
324.809
325.117
325.19
325.435
325.384
325.131
325.239
325.051
324.81
324.434
324.247
324.025
323.609
323.181
322.713
322.15
321.489
321.042
321.291
321.216
321.578
321.84
321.931
322.123
322.1
321.913
321.984
321.855
321.602
321.295
321.12
320.942
320.582
320.193
319.789
319.292
318.695
318.322
318.151
318.05
318.326
318.519
318.623
318.783
318.78
318.63
318.664
318.573
318.347
318.132
317.955
317.787
317.525
317.173
316.839
316.368
315.942
315.548
314.918
314.854
315.056
315.212
315.304
315.411
315.448
315.276
315.341
315.295
315.105
314.887
314.7
314.635
314.437
314.166
313.799
313.448
313.134
312.735
311.691
311.61
311.752
311.878
311.954
312.054
312.11
311.896
311.934
311.931
311.804
311.621
311.463
311.47
311.272
311.049
310.738
310.524
310.268
309.884
308.397
308.318
308.408
308.525
308.575
308.67
308.671
308.54
308.515
308.515
308.501
308.302
308.182
308.272
308.057
307.913
307.665
307.561
307.361
307.071
305.068
305.03
305.056
305.116
305.16
305.233
305.214
305.104
305.148
305.125
305.174
305.007
304.924
304.995
304.838
304.749
304.585
304.561
304.443
304.239
301.704
301.691
301.699
301.711
301.724
301.74
301.758
301.699
301.73
301.709
301.757
301.683
301.648
301.691
301.631
301.584
301.525
301.528
301.479
301.43
325.482
325.544
326.031
326.319
326.653
326.801
326.559
326.672
326.566
326.265
326.175
325.949
325.649
325.373
324.831
324.49
324.071
323.581
322.84
322.135
322.16
322.201
322.641
322.875
323.197
323.353
323.131
323.227
323.118
322.856
322.773
322.598
322.295
322.119
321.648
321.347
320.986
320.542
319.892
319.313
318.79
318.831
319.23
319.422
319.686
319.85
319.699
319.75
319.633
319.388
319.341
319.224
318.928
318.831
318.41
318.153
317.802
317.479
316.906
316.419
315.421
315.436
315.835
315.947
316.126
316.307
316.238
316.209
316.114
315.896
315.863
315.785
315.547
315.509
315.137
314.929
314.599
314.408
313.902
313.487
312.059
312.021
312.393
312.47
312.573
312.746
312.728
312.67
312.566
312.401
312.359
312.33
312.168
312.093
311.821
311.653
311.375
311.272
310.852
310.551
308.688
308.598
308.879
308.928
309.043
309.149
309.145
309.067
308.974
308.838
308.832
308.83
308.728
308.667
308.475
308.351
308.123
308.12
307.782
307.575
305.264
305.192
305.357
305.393
305.452
305.529
305.508
305.44
305.385
305.31
305.271
305.323
305.256
305.231
305.1
305.013
304.881
304.93
304.659
304.55
301.776
301.714
301.795
301.816
301.818
301.854
301.849
301.827
301.824
301.771
301.752
301.769
301.761
301.756
301.707
301.66
301.63
301.66
301.569
301.509
326.372
326.775
327.262
327.675
327.854
328.143
327.966
327.802
327.963
327.721
327.614
327.321
327.121
326.634
326.147
325.703
325.453
324.819
323.934
323.358
322.918
323.283
323.729
324.116
324.218
324.551
324.374
324.188
324.337
324.127
324.059
323.826
323.644
323.173
322.747
322.419
322.163
321.671
320.841
320.356
319.469
319.762
320.168
320.549
320.58
320.907
320.745
320.539
320.685
320.515
320.493
320.282
320.118
319.678
319.355
319.044
318.85
318.451
317.76
317.294
315.958
316.217
316.553
316.924
316.927
317.164
317.005
316.825
317.005
316.85
316.858
316.675
316.516
316.136
315.923
315.634
315.509
315.154
314.626
314.213
312.441
312.668
312.907
313.21
313.258
313.399
313.225
313.104
313.25
313.192
313.17
313.042
312.929
312.588
312.442
312.199
312.106
311.869
311.438
311.109
308.892
309.072
309.267
309.491
309.493
309.557
309.483
309.415
309.488
309.459
309.41
309.369
309.278
309.012
308.946
308.741
308.674
308.512
308.196
307.984
305.337
305.466
305.581
305.734
305.712
305.73
305.738
305.666
305.725
305.673
305.647
305.659
305.584
305.437
305.363
305.294
305.212
305.126
304.92
304.841
301.789
301.825
301.862
301.914
301.916
301.934
301.924
301.891
301.924
301.896
301.881
301.885
301.891
301.83
301.79
301.777
301.745
301.713
301.654
301.606
327.595
328.009
328.384
328.892
329.158
329.432
329.277
329.397
329.167
328.87
328.955
328.769
328.533
328.087
327.507
327.053
326.596
326.078
325.123
324.735
324.003
324.376
324.68
325.122
325.363
325.59
325.52
325.59
325.391
325.13
325.267
325.018
324.837
324.453
323.944
323.51
323.142
322.694
321.846
321.516
320.395
320.69
320.965
321.299
321.544
321.783
321.706
321.73
321.599
321.408
321.475
321.231
321.068
320.799
320.322
319.958
319.696
319.253
318.564
318.324
316.717
316.959
317.218
317.441
317.703
317.928
317.848
317.827
317.78
317.639
317.653
317.404
317.314
317.076
316.674
316.355
316.239
315.809
315.249
315.036
313.041
313.251
313.421
313.591
313.809
314.019
313.927
313.903
313.895
313.784
313.721
313.553
313.533
313.298
312.974
312.748
312.708
312.31
311.921
311.709
309.312
309.497
309.608
309.753
309.856
310.072
309.994
309.95
309.969
309.865
309.82
309.708
309.684
309.538
309.286
309.117
309.126
308.803
308.55
308.328
305.602
305.73
305.784
305.868
305.94
306.073
306.026
305.978
306.023
305.924
305.931
305.85
305.824
305.779
305.573
305.503
305.508
305.29
305.154
304.994
301.897
301.945
301.935
301.969
301.984
302.032
302.021
302
302.017
301.985
301.981
301.961
301.963
301.956
301.847
301.856
301.864
301.763
301.739
301.658
328.6
328.977
329.679
330.116
330.433
330.529
330.658
330.797
330.552
330.275
330.273
330.213
329.846
329.394
328.876
328.291
327.853
327.248
326.718
325.829
324.876
325.184
325.779
326.232
326.487
326.603
326.661
326.797
326.557
326.336
326.351
326.287
326.006
325.558
325.117
324.624
324.241
323.741
323.246
322.488
321.135
321.326
321.866
322.285
322.468
322.635
322.657
322.739
322.479
322.336
322.383
322.331
322.121
321.695
321.35
320.934
320.605
320.19
319.717
319.131
317.353
317.443
317.901
318.292
318.414
318.668
318.588
318.651
318.46
318.315
318.388
318.319
318.132
317.816
317.552
317.178
316.939
316.628
316.22
315.697
313.523
313.621
313.906
314.253
314.303
314.648
314.47
314.538
314.412
314.319
314.361
314.301
314.144
313.858
313.707
313.418
313.249
312.974
312.631
312.278
309.682
309.766
309.932
310.235
310.215
310.524
310.309
310.414
310.338
310.252
310.295
310.235
310.162
309.923
309.807
309.639
309.494
309.289
309.041
308.781
305.833
305.881
305.972
306.138
306.169
306.348
306.197
306.238
306.231
306.154
306.182
306.199
306.119
305.948
305.882
305.804
305.723
305.578
305.441
305.287
301.96
301.966
301.987
302.054
302.084
302.141
302.085
302.072
302.096
302.072
302.092
302.088
302.054
301.991
301.967
301.939
301.93
301.851
301.836
301.762
329.991
330.425
330.902
331.24
331.615
331.976
331.965
331.973
331.755
331.609
331.579
331.358
331.187
330.831
330.216
329.646
328.985
328.574
327.901
327.247
326.06
326.489
326.871
327.255
327.545
327.848
327.78
327.827
327.61
327.492
327.518
327.32
327.138
326.825
326.295
325.816
325.184
324.87
324.263
323.746
322.157
322.484
322.802
323.174
323.39
323.659
323.602
323.606
323.476
323.356
323.4
323.266
323.045
322.772
322.31
321.91
321.366
321.162
320.581
320.144
318.236
318.5
318.71
319.035
319.181
319.436
319.428
319.377
319.258
319.155
319.213
319.118
318.931
318.68
318.296
317.969
317.492
317.399
316.876
316.518
314.27
314.451
314.572
314.847
314.942
315.181
315.193
315.094
315.014
314.92
314.973
314.899
314.761
314.577
314.246
314.038
313.627
313.553
313.165
312.885
310.235
310.363
310.457
310.634
310.687
310.893
310.86
310.774
310.765
310.684
310.721
310.665
310.561
310.421
310.222
310.072
309.771
309.682
309.436
309.251
306.165
306.26
306.292
306.426
306.431
306.576
306.527
306.447
306.488
306.414
306.47
306.398
306.339
306.252
306.172
306.067
305.86
305.831
305.676
305.58
302.064
302.113
302.108
302.164
302.155
302.208
302.174
302.148
302.157
302.15
302.161
302.135
302.15
302.091
302.085
302.036
301.97
301.955
301.888
301.873
331.098
331.555
332.085
332.619
333.029
333.276
333.146
333.282
333.071
332.94
332.859
332.855
332.701
332.04
331.507
330.892
330.157
329.596
329.007
328.204
327.032
327.418
327.909
328.418
328.764
328.945
328.848
328.99
328.789
328.646
328.581
328.634
328.433
327.846
327.431
326.88
326.268
325.763
325.238
324.577
322.945
323.276
323.746
324.204
324.42
324.551
324.504
324.644
324.457
324.307
324.268
324.332
324.164
323.618
323.254
322.849
322.329
321.919
321.436
320.888
318.82
319.098
319.496
319.901
320.06
320.16
320.061
320.212
320.09
319.973
319.898
319.971
319.854
319.372
319.07
318.775
318.361
318.012
317.572
317.175
314.654
314.881
315.201
315.574
315.646
315.722
315.571
315.743
315.702
315.561
315.563
315.589
315.501
315.106
314.871
314.632
314.377
314.111
313.686
313.445
310.484
310.626
310.871
311.166
311.229
311.282
311.116
311.211
311.244
311.092
311.144
311.183
311.117
310.81
310.632
310.468
310.321
310.11
309.777
309.651
306.309
306.418
306.508
306.758
306.769
306.794
306.68
306.711
306.784
306.656
306.723
306.748
306.722
306.494
306.376
306.257
306.193
306.054
305.857
305.801
302.119
302.146
302.166
302.274
302.266
302.29
302.241
302.26
302.284
302.255
302.236
302.268
302.252
302.18
302.139
302.086
302.08
302.018
301.973
301.954
332.264
332.644
333.304
333.68
333.871
334.323
334.441
334.386
334.515
334.283
333.938
333.898
333.67
333.328
332.817
332.048
331.53
330.753
330.344
329.368
328.041
328.397
328.955
329.29
329.453
329.846
329.965
329.925
329.995
329.813
329.526
329.538
329.291
329.005
328.564
327.861
327.459
326.769
326.459
325.559
323.775
324.098
324.582
324.895
325.045
325.372
325.438
325.376
325.464
325.318
325.099
325.1
324.91
324.641
324.258
323.688
323.362
322.774
322.487
321.702
319.497
319.779
320.117
320.472
320.588
320.83
320.861
320.794
320.92
320.786
320.582
320.608
320.457
320.255
319.899
319.45
319.19
318.738
318.447
317.818
315.163
315.411
315.669
316.008
316.079
316.221
316.252
316.272
316.328
316.178
316.05
316.116
315.944
315.8
315.483
315.182
314.993
314.645
314.391
313.92
310.839
311.003
311.181
311.468
311.5
311.617
311.621
311.659
311.709
311.568
311.489
311.572
311.417
311.281
311.052
310.876
310.675
310.509
310.295
309.954
306.495
306.599
306.739
306.859
306.905
306.961
306.972
306.992
307.065
306.934
306.913
306.946
306.862
306.779
306.662
306.536
306.403
306.366
306.22
306.011
302.177
302.204
302.268
302.301
302.317
302.339
302.342
302.325
302.382
302.318
302.325
302.322
302.3
302.258
302.227
302.207
302.136
302.168
302.094
302.043
333.244
333.564
334.237
334.601
335.042
335.304
335.586
335.564
335.596
335.685
335.299
335.128
334.626
334.452
333.938
333.483
332.672
331.852
331.434
330.476
328.932
329.212
329.77
330.077
330.447
330.719
330.955
330.977
331.002
331.001
330.718
330.542
330.143
329.989
329.485
329.136
328.452
327.764
327.339
326.605
324.513
324.779
325.25
325.52
325.866
326.042
326.305
326.329
326.313
326.328
326.098
325.931
325.552
325.461
324.966
324.733
324.176
323.607
323.225
322.656
320.083
320.34
320.695
320.937
321.234
321.344
321.623
321.617
321.605
321.59
321.383
321.288
320.946
320.899
320.468
320.296
319.851
319.421
319.075
318.666
315.634
315.827
316.157
316.306
316.57
316.634
316.861
316.886
316.838
316.803
316.701
316.663
316.326
316.31
315.945
315.857
315.458
315.191
314.913
314.558
311.185
311.304
311.578
311.631
311.897
311.892
312.041
312.084
312.055
311.999
311.959
311.941
311.671
311.675
311.405
311.33
311.067
310.893
310.654
310.404
306.73
306.759
306.955
307.023
307.152
307.132
307.208
307.255
307.236
307.196
307.201
307.203
307.004
307.005
306.844
306.77
306.647
306.568
306.407
306.245
302.234
302.277
302.319
302.364
302.407
302.393
302.41
302.424
302.405
302.41
302.43
302.417
302.353
302.357
302.304
302.266
302.226
302.204
302.152
302.087
334.065
334.601
335.328
335.805
336.311
336.339
336.695
336.613
336.714
336.607
336.568
336.279
335.896
335.601
335.046
334.278
333.795
332.948
332.27
331.468
329.644
330.071
330.709
331.132
331.605
331.583
331.906
331.858
331.961
331.865
331.85
331.557
331.279
330.962
330.473
329.862
329.367
328.685
328.042
327.414
325.212
325.52
326.093
326.401
326.806
326.832
327.101
327.069
327.115
327.075
327.043
326.816
326.605
326.293
325.882
325.349
324.934
324.404
323.784
323.317
320.69
320.917
321.443
321.641
321.972
322.023
322.224
322.237
322.237
322.21
322.253
322.008
321.861
321.588
321.246
320.773
320.477
320.088
319.516
319.143
316.123
316.323
316.74
316.831
317.128
317.115
317.35
317.363
317.327
317.31
317.461
317.124
317.107
316.872
316.544
316.196
315.981
315.668
315.24
314.901
311.53
311.699
311.968
312.022
312.261
312.172
312.423
312.433
312.466
312.382
312.526
312.263
312.281
312.135
311.815
311.586
311.455
311.198
310.906
310.633
306.945
307.018
307.171
307.222
307.354
307.319
307.473
307.478
307.555
307.435
307.52
307.359
307.377
307.302
307.08
307.006
306.893
306.705
306.556
306.368
302.323
302.361
302.408
302.435
302.477
302.455
302.503
302.507
302.553
302.495
302.534
302.461
302.471
302.457
302.399
302.347
302.31
302.231
302.202
302.127
335.052
335.731
336.191
336.552
337.208
337.302
337.596
337.67
337.809
337.665
337.72
337.383
336.96
336.579
335.955
335.224
334.714
333.818
333.103
332.586
330.524
331.069
331.512
331.795
332.412
332.458
332.655
332.779
332.883
332.743
332.8
332.493
332.201
331.805
331.298
330.669
330.204
329.421
328.804
328.346
325.905
326.362
326.778
327.034
327.544
327.544
327.686
327.841
327.927
327.776
327.782
327.524
327.375
327.005
326.612
326.083
325.679
324.992
324.454
324.07
321.243
321.641
321.988
322.225
322.589
322.577
322.669
322.845
322.92
322.791
322.778
322.563
322.482
322.178
321.839
321.454
321.111
320.585
320.068
319.748
316.562
316.881
317.153
317.386
317.603
317.605
317.648
317.856
317.876
317.783
317.74
317.605
317.54
317.303
317.068
316.77
316.526
316.078
315.664
315.427
311.848
312.068
312.253
312.443
312.6
312.625
312.626
312.802
312.76
312.757
312.685
312.604
312.562
312.402
312.232
312.019
311.83
311.537
311.208
311.1
307.129
307.257
307.372
307.492
307.571
307.612
307.565
307.714
307.694
307.695
307.626
307.571
307.545
307.448
307.339
307.228
307.085
306.916
306.753
306.688
302.394
302.441
302.477
302.515
302.543
302.543
302.525
302.579
302.579
302.589
302.557
302.555
302.517
302.514
302.461
302.409
302.378
302.311
302.272
302.262
335.812
336.468
337.06
337.667
338.061
338.245
338.531
338.849
338.698
338.756
338.668
338.326
338.064
337.296
336.803
336.132
335.607
334.936
334.029
333.294
331.161
331.715
332.254
332.747
333.114
333.255
333.469
333.76
333.624
333.735
333.6
333.319
333.109
332.451
331.996
331.435
330.966
330.374
329.627
328.985
326.484
326.92
327.39
327.789
328.134
328.224
328.377
328.658
328.553
328.658
328.498
328.233
328.116
327.601
327.138
326.705
326.274
325.745
325.191
324.608
321.71
322.057
322.487
322.783
323.14
323.145
323.242
323.495
323.469
323.563
323.357
323.147
323.031
322.664
322.27
321.959
321.567
321.087
320.718
320.165
316.926
317.192
317.503
317.771
318.056
318.048
318.133
318.298
318.299
318.393
318.232
318.005
317.938
317.703
317.36
317.089
316.885
316.412
316.141
315.686
312.115
312.321
312.488
312.695
312.951
312.913
312.969
313.095
313.104
313.198
313.032
312.881
312.813
312.664
312.408
312.224
312.104
311.708
311.559
311.23
307.291
307.39
307.483
307.632
307.767
307.772
307.786
307.883
307.905
307.948
307.847
307.78
307.672
307.61
307.478
307.339
307.245
307.039
306.933
306.764
302.434
302.477
302.498
302.53
302.599
302.588
302.606
302.661
302.642
302.672
302.639
302.606
302.558
302.56
302.511
302.45
302.417
302.356
302.321
302.258
336.627
337.086
337.664
338.341
338.864
339.046
339.385
339.519
339.575
339.723
339.588
339.263
338.843
338.26
337.721
337.12
336.381
335.555
334.978
334.347
331.864
332.252
332.722
333.291
333.768
333.97
334.263
334.378
334.376
334.574
334.423
334.139
333.784
333.282
332.795
332.313
331.686
330.925
330.416
329.92
327.05
327.375
327.789
328.244
328.629
328.821
329.102
329.237
329.137
329.349
329.259
328.973
328.705
328.263
327.869
327.433
326.942
326.245
325.892
325.448
322.159
322.506
322.768
323.181
323.472
323.624
323.891
324.063
323.888
324.081
324.024
323.744
323.596
323.191
322.849
322.553
322.067
321.514
321.297
320.915
317.243
317.575
317.729
318.084
318.304
318.394
318.662
318.789
318.616
318.792
318.753
318.496
318.438
318.074
317.785
317.577
317.184
316.804
316.6
316.317
312.343
312.553
312.72
312.963
313.117
313.135
313.375
313.454
313.342
313.46
313.457
313.22
313.217
312.914
312.727
312.586
312.323
312.083
311.882
311.676
307.408
307.524
307.664
307.782
307.909
307.924
308.075
308.066
308.02
308.121
308.094
307.969
307.964
307.755
307.667
307.594
307.409
307.276
307.143
307.028
302.489
302.503
302.574
302.606
302.657
302.653
302.704
302.701
302.688
302.73
302.738
302.681
302.674
302.595
302.587
302.542
302.496
302.435
302.389
302.351
337.279
337.892
338.508
339.141
339.533
340.015
340.155
340.325
340.544
340.399
340.242
340.061
339.959
339.199
338.782
338.143
337.249
336.387
335.57
335.033
332.44
332.958
333.443
334.013
334.371
334.818
334.903
335.038
335.225
335.177
334.99
334.799
334.754
334.115
333.721
333.176
332.377
331.661
330.926
330.484
327.506
327.968
328.363
328.835
329.187
329.556
329.622
329.753
329.892
329.872
329.698
329.488
329.518
328.928
328.631
328.179
327.516
326.85
326.299
325.917
322.534
322.918
323.235
323.674
323.931
324.235
324.303
324.438
324.53
324.525
324.42
324.174
324.198
323.736
323.534
323.154
322.565
322.035
321.57
321.312
317.539
317.892
318.066
318.458
318.625
318.869
318.954
319.058
319.12
319.175
319.061
318.821
318.852
318.476
318.34
318.102
317.576
317.195
316.807
316.627
312.499
312.817
312.945
313.203
313.336
313.495
313.572
313.638
313.707
313.738
313.681
313.451
313.479
313.2
313.133
312.996
312.604
312.327
312.048
311.914
307.493
307.706
307.766
307.919
308.013
308.095
308.158
308.181
308.247
308.258
308.251
308.044
308.097
307.943
307.872
307.791
307.586
307.424
307.233
307.156
302.524
302.598
302.609
302.647
302.687
302.713
302.748
302.726
302.764
302.776
302.773
302.702
302.708
302.658
302.65
302.616
302.542
302.493
302.421
302.41
337.986
338.708
339.05
340.006
340.338
340.663
340.858
341.242
341.189
341.326
341.078
340.997
340.457
340.029
339.334
338.809
337.706
337.062
336.253
335.734
333.025
333.622
333.961
334.708
335.079
335.404
335.482
335.885
335.793
335.925
335.771
335.652
335.157
334.801
334.227
333.749
332.733
332.248
331.501
331.117
328.048
328.51
328.797
329.366
329.757
330.11
330.097
330.453
330.389
330.482
330.357
330.276
329.831
329.554
329.096
328.627
327.762
327.4
326.717
326.411
323.017
323.365
323.577
324.061
324.434
324.712
324.717
324.959
324.926
324.982
324.883
324.872
324.454
324.27
323.863
323.462
322.757
322.453
321.925
321.643
317.926
318.183
318.365
318.761
319.051
319.267
319.301
319.436
319.415
319.463
319.367
319.44
319.064
318.919
318.573
318.262
317.767
317.541
317.09
316.815
312.841
313.011
313.162
313.429
313.652
313.812
313.829
313.934
313.905
313.898
313.871
313.924
313.63
313.531
313.268
313.023
312.784
312.556
312.203
311.967
307.734
307.814
307.936
308.127
308.229
308.311
308.346
308.376
308.353
308.377
308.358
308.388
308.194
308.147
307.981
307.78
307.728
307.524
307.331
307.138
302.585
302.602
302.666
302.73
302.769
302.784
302.804
302.818
302.801
302.801
302.808
302.831
302.748
302.743
302.675
302.616
302.59
302.551
302.456
302.398
338.336
338.923
339.534
340.405
340.773
341.328
341.634
341.655
341.717
341.864
341.707
341.573
341.113
340.566
340.09
339.264
338.445
337.578
336.839
336.266
333.391
333.845
334.375
335.034
335.437
335.951
336.199
336.198
336.259
336.363
336.3
336.094
335.729
335.297
334.863
334.197
333.394
332.684
332.011
331.542
328.403
328.71
329.156
329.654
330.068
330.526
330.695
330.66
330.752
330.864
330.872
330.637
330.313
329.971
329.581
329.035
328.306
327.779
327.161
326.759
323.356
323.539
323.898
324.306
324.69
325.052
325.136
325.096
325.196
325.311
325.354
325.139
324.904
324.581
324.291
323.808
323.174
322.792
322.269
321.954
318.269
318.351
318.652
318.983
319.26
319.509
319.59
319.527
319.648
319.728
319.772
319.571
319.437
319.156
318.951
318.566
318.02
317.812
317.362
317.118
313.121
313.159
313.329
313.617
313.777
313.923
314.028
313.932
314.045
314.082
314.155
314.007
313.927
313.726
313.581
313.302
312.888
312.787
312.421
312.249
307.916
307.913
308.013
308.185
308.283
308.382
308.417
308.367
308.426
308.448
308.494
308.387
308.394
308.232
308.164
307.999
307.733
307.698
307.434
307.349
302.65
302.673
302.688
302.731
302.769
302.82
302.829
302.787
302.828
302.838
302.856
302.811
302.823
302.759
302.74
302.697
302.593
302.598
302.487
302.46
338.707
339.164
339.921
340.758
341.263
341.551
341.893
342.132
342.127
342.397
342.334
341.771
341.492
340.943
340.63
339.625
338.999
337.94
337.21
336.767
333.646
334.019
334.622
335.417
335.845
336.093
336.362
336.579
336.569
336.849
336.793
336.323
336.045
335.561
335.264
334.404
333.858
332.928
332.354
331.969
328.588
328.866
329.348
330.007
330.39
330.593
330.845
330.966
330.944
331.266
331.209
330.846
330.559
330.125
329.912
329.188
328.717
327.924
327.444
327.11
323.469
323.653
324.042
324.574
324.932
325.069
325.261
325.335
325.373
325.579
325.599
325.284
325.032
324.681
324.54
323.923
323.534
322.939
322.534
322.223
318.276
318.447
318.718
319.143
319.443
319.498
319.674
319.708
319.784
319.885
319.943
319.727
319.522
319.214
319.107
318.597
318.314
317.919
317.547
317.313
313.08
313.221
313.362
313.698
313.956
313.907
314.055
314.055
314.191
314.193
314.26
314.082
313.994
313.742
313.67
313.269
313.125
312.803
312.575
312.421
307.881
307.944
308.022
308.284
308.401
308.34
308.448
308.398
308.541
308.52
308.538
308.458
308.407
308.246
308.219
307.966
307.928
307.667
307.591
307.513
302.65
302.662
302.691
302.807
302.842
302.795
302.811
302.803
302.867
302.863
302.861
302.833
302.815
302.771
302.74
302.651
302.666
302.585
302.57
302.539
)
;

boundaryField
{
    hotSide
    {
        type            fixedGradient;
        gradient        nonuniform List<scalar> 
400
(
208.141
221.01
233.91
246.781
259.566
272.205
284.636
296.8
308.635
320.081
331.079
341.573
351.509
360.833
369.498
377.457
384.67
391.101
396.716
401.488
210.639
223.877
237.152
250.406
263.578
276.607
289.429
301.982
314.203
326.031
337.405
348.266
358.556
368.224
377.217
385.489
392.997
399.703
405.574
410.58
212.503
226.074
239.692
253.294
266.819
280.204
293.385
306.296
318.874
331.054
342.775
353.975
364.597
374.584
383.884
392.45
400.236
407.202
413.315
418.543
213.749
227.618
241.541
255.455
269.298
283.004
296.508
309.743
322.643
335.144
347.181
358.691
369.616
379.896
389.48
398.316
406.359
413.568
419.907
425.346
214.403
228.531
242.721
256.908
271.03
285.019
298.808
312.33
325.518
338.304
350.623
362.412
373.608
384.153
393.993
403.075
411.353
418.784
425.332
430.964
214.496
228.843
243.258
257.679
272.038
286.27
300.305
314.075
327.511
340.546
353.111
365.143
376.578
387.356
397.422
406.723
415.21
422.841
429.577
435.385
214.06
228.584
243.184
257.795
272.351
286.783
301.022
314.999
328.643
341.886
354.659
366.897
378.535
389.513
399.774
409.263
417.933
425.738
432.639
438.603
213.131
227.79
242.531
257.289
271.997
286.586
300.986
315.126
328.936
342.346
355.287
367.692
379.497
390.639
401.06
410.707
419.529
427.481
434.523
440.622
211.747
226.497
241.335
256.196
271.011
285.712
300.228
314.487
328.419
341.954
355.02
367.552
379.483
390.752
401.299
411.069
420.012
428.083
435.24
441.449
209.942
224.739
239.629
254.547
269.424
284.192
298.778
313.111
327.12
340.735
353.884
366.501
378.519
389.875
400.511
410.37
419.401
427.56
434.804
441.099
207.751
222.551
237.448
252.377
267.27
282.057
296.667
311.028
325.069
338.719
351.907
364.566
376.629
388.033
398.719
408.631
417.717
425.932
433.235
439.589
205.203
219.962
234.821
249.715
264.577
279.337
293.924
308.267
322.294
335.933
349.116
361.773
373.84
385.251
395.949
405.877
414.984
423.224
430.555
436.942
202.327
216.999
231.775
246.59
261.375
276.061
290.579
304.857
318.823
332.407
345.539
358.152
370.179
381.557
392.228
402.135
411.228
419.46
426.789
433.181
199.144
213.687
228.336
243.024
257.687
272.254
286.656
300.823
314.683
328.166
341.204
353.728
365.674
376.979
387.584
397.433
406.476
414.667
421.965
428.334
195.674
210.045
224.522
239.041
253.536
267.938
282.179
296.189
309.898
323.236
336.136
348.529
360.352
371.543
382.044
391.799
400.758
408.877
416.113
422.432
191.931
206.089
220.352
234.657
248.94
263.134
277.169
290.978
304.492
317.642
330.36
342.581
354.241
365.279
375.638
385.263
394.105
402.119
409.264
415.507
187.926
201.829
215.837
229.888
243.917
257.858
271.646
285.212
298.488
311.407
323.903
335.911
347.369
358.216
368.397
377.858
386.55
394.429
401.455
407.595
183.667
197.278
210.991
224.746
238.48
252.129
265.628
278.909
291.907
304.555
316.789
328.546
339.765
350.385
360.354
369.617
378.128
385.843
392.723
398.737
179.159
192.441
205.822
219.244
232.645
245.962
259.132
272.09
284.771
297.111
309.047
320.516
331.46
341.82
351.543
360.578
368.878
376.402
383.112
388.975
174.407
187.325
200.339
213.392
226.424
239.374
252.179
264.778
277.106
289.102
300.704
311.852
322.488
332.556
342.003
350.781
358.844
366.152
372.667
378.359
)
;
    }
    coldSide
    {
        type            mixed;
        refValue        uniform 300;
        refGradient     uniform 0;
        valueFraction   uniform 0.991591;
        source          uniform 0;
        value           nonuniform List<scalar> 
400
(
300.013
300.013
300.013
300.014
300.015
300.015
300.016
300.016
300.017
300.018
300.018
300.019
300.02
300.02
300.02
300.021
300.021
300.022
300.022
300.022
300.013
300.013
300.013
300.014
300.014
300.015
300.016
300.017
300.018
300.018
300.019
300.019
300.02