/*--------------------------------*- C++ -*----------------------------------*\
| =========                 |                                                 |
| \\      /  F ield         | OpenFOAM: The Open Source CFD Toolbox           |
|  \\    /   O peration     | Version:  2212                                  |
|   \\  /    A nd           | Website:  www.openfoam.com                      |
|    \\/     M anipulation  |                                                 |
\*---------------------------------------------------------------------------*/
FoamFile
{
    version     2.0;
    format      ascii;
    arch        "LSB;label=32;scalar=64";
    class       volScalarField;
    location    "0";
    object      T;
}
// * * * * * * * * * * * * * * * * * * * * * * * * * * * * * * * * * * * * * //

dimensions      [0 0 0 1 0 0 0];

internalField   nonuniform List<scalar> 
3200
(
337.672
338.481
339.546
340.239
341.03
341.221
341.685
342.241
342.426
342.681
342.607
342.405
342.001
341.859
341.359
340.616
339.929
339.205
338.645
337.667
332.749
333.459
334.395
334.956
335.675
335.876
336.188
336.694
336.886
337.114
336.991
336.812
336.502
336.379
335.919
335.294
334.694
333.99
333.58
332.723
327.782
328.354
329.196
329.642
330.26
330.419
330.628
331.147
331.337
331.504
331.396
331.205
330.92
330.835
330.39
329.891
329.378
328.806
328.495
327.75
322.78
323.229
323.951
324.312
324.799
324.913
325.096
325.527
325.683
325.86
325.726
325.571
325.293
325.27
324.878
324.505
324.044
323.595
323.392
322.753
317.721
318.123
318.641
318.911
319.308
319.369
319.561
319.92
320.036
320.13
320.017
319.935
319.668
319.636
319.347
319.067
318.703
318.391
318.304
317.741
312.631
312.97
313.323
313.547
313.815
313.819
314.019
314.301
314.329
314.432
314.303
314.28
314.07
314.025
313.818
313.597
313.336
313.188
313.171
312.71
307.592
307.762
308.039
308.158
308.294
308.336
308.448
308.587
308.602
308.673
308.585
308.59
308.465
308.42
308.25
308.169
308.026
307.949
307.97
307.62
302.545
302.599
302.708
302.75
302.793
302.797
302.843
302.904
302.884
302.907
302.865
302.894
302.828
302.808
302.785
302.743
302.686
302.675
302.701
302.562
338.638
339.566
340.643
341.388
342.132
342.529
342.982
343.33
343.463
343.759
343.699
343.505
343.501
343.014
342.331
341.959
341.165
340.368
339.563
338.791
333.523
334.364
335.289
335.896
336.549
336.901
337.28
337.582
337.706
337.977
337.905
337.738
337.728
337.332
336.728
336.386
335.682
335.017
334.375
333.654
328.411
329.118
329.919
330.417
330.952
331.226
331.588
331.803
331.96
332.197
332.041
331.947
331.93
331.616
331.086
330.811
330.221
329.648
329.148
328.535
323.274
323.883
324.548
324.957
325.326
325.56
325.894
326.043
326.195
326.37
326.21
326.155
326.131
325.906
325.44
325.189
324.752
324.265
323.857
323.356
318.127
318.63
319.108
319.451
319.72
319.856
320.206
320.269
320.425
320.572
320.398
320.343
320.334
320.16
319.794
319.592
319.253
318.903
318.569
318.219
312.985
313.357
313.638
313.981
314.085
314.196
314.488
314.503
314.657
314.711
314.577
314.575
314.532
314.388
314.129
313.986
313.719
313.52
313.279
313.031
307.803
308.03
308.193
308.437
308.446
308.538
308.704
308.738
308.851
308.852
308.757
308.752
308.73
308.63
308.483
308.376
308.227
308.152
307.991
307.828
302.612
302.699
302.736
302.813
302.83
302.877
302.914
302.943
302.97
302.951
302.933
302.931
302.917
302.888
302.851
302.794
302.769
302.75
302.665
302.638
339.99
341.074
341.837
342.818
343.422
344.026
344.453
344.93
344.937
345.116
345.14
345.007
344.907
344.507
343.767
343.415
342.681
341.811
341.008
340.283
334.666
335.612
336.266
337.146
337.67
338.142
338.559
338.951
338.972
339.153
339.1
339.029
338.91
338.536
337.964
337.613
337.005
336.202
335.589
334.955
329.304
330.114
330.716
331.446
331.884
332.256
332.629
332.963
332.992
333.191
333.052
333.032
332.944
332.626
332.129
331.801
331.299
330.565
330.145
329.609
323.967
324.678
325.156
325.823
326.062
326.347
326.712
327.001
326.989
327.193
327.047
327.039
326.973
326.697
326.307
326.02
325.596
325.011
324.679
324.252
318.669
319.211
319.564
320.114
320.285
320.473
320.786
321.012
321.018
321.19
321.033
321.034
321.021
320.832
320.454
320.266
319.892
319.458
319.184
318.862
313.358
313.734
313.945
314.407
314.494
314.617
314.838
315.032
315.06
315.127
315.045
315.061
315.009
314.911
314.61
314.449
314.186
313.91
313.696
313.509
308.017
308.262
308.351
308.663
308.724
308.738
308.885
309.03
309.065
309.083
309.055
309.051
309.01
308.941
308.755
308.7
308.542
308.344
308.203
308.119
302.698
302.761
302.787
302.895
302.929
302.92
302.968
303.037
303.048
303.057
303.033
303.05
303.026
302.974
302.928
302.909
302.847
302.784
302.754
302.729
341.312
342.365
343.119
344.095
344.984
345.34
346.135
346.436
346.53
346.772
346.751
346.559
346.369
346.132
345.618
345.162
344.201
343.468
342.495
341.64
335.817
336.703
337.354
338.2
338.982
339.262
340.023
340.311
340.328
340.578
340.494
340.355
340.163
340.015
339.532
339.15
338.31
337.638
336.8
336.062
330.261
331.051
331.621
332.312
332.944
333.232
333.938
334.19
334.116
334.394
334.247
334.174
333.987
333.871
333.487
333.095
332.365
331.821
331.127
330.489
324.748
325.418
325.915
326.472
326.958
327.194
327.804
328.013
327.907
328.167
327.998
327.982
327.836
327.684
327.41
327.075
326.465
326.025
325.493
324.94
319.257
319.753
320.153
320.598
321.004
321.152
321.676
321.795
321.694
321.961
321.797
321.79
321.656
321.536
321.306
321.086
320.573
320.244
319.827
319.385
313.785
314.092
314.37
314.742
315.052
315.127
315.435
315.559
315.501
315.675
315.59
315.581
315.49
315.436
315.211
315.056
314.705
314.451
314.168
313.903
308.269
308.459
308.644
308.874
309.046
309.075
309.247
309.389
309.299
309.398
309.372
309.339
309.301
309.276
309.135
309.051
308.836
308.674
308.504
308.386
302.761
302.827
302.884
302.974
303.023
303.04
303.089
303.148
303.096
303.143
303.141
303.136
303.113
303.109
303.082
303.037
302.975
302.897
302.853
302.821
342.926
343.798
344.698
345.757
346.444
347.141
347.765
347.98
348.244
348.421
348.398
348.311
347.978
347.59
347.377
346.579
345.95
345.115
344.056
343.282
337.249
337.93
338.765
339.649
340.261
340.865
341.416
341.578
341.802
342.008
341.965
341.866
341.559
341.264
341.017
340.391
339.817
339.08
338.132
337.531
331.586
332.098
332.767
333.499
334.115
334.603
335.06
335.226
335.389
335.548
335.529
335.428
335.15
334.903
334.673
334.203
333.699
333.067
332.264
331.712
325.92
326.28
326.806
327.384
328
328.352
328.64
328.801
329.014
329.102
329.066
329.004
328.704
328.561
328.337
328.037
327.574
327.085
326.384
325.904
320.176
320.436
320.852
321.273
321.83
322.052
322.284
322.392
322.619
322.666
322.597
322.568
322.297
322.244
322.036
321.852
321.439
321.111
320.504
320.159
314.413
314.606
314.901
315.167
315.62
315.723
315.932
316.006
316.175
316.192
316.139
316.147
315.926
315.926
315.755
315.616
315.348
315.061
314.643
314.413
308.691
308.773
308.943
309.11
309.402
309.417
309.585
309.61
309.737
309.698
309.707
309.696
309.576
309.567
309.495
309.389
309.239
309.018
308.793
308.687
302.905
302.949
303.01
303.041
303.162
303.16
303.205
303.209
303.257
303.256
303.247
303.245
303.204
303.195
303.177
303.154
303.11
303.017
302.961
302.927
344.572
345.373
346.347
347.186
347.952
348.811
349.261
349.815
350.082
350.389
350.267
350.122
349.742
349.168
348.795
348.224
347.334
346.661
345.548
344.855
338.702
339.344
340.152
340.902
341.583
342.341
342.707
343.156
343.393
343.633
343.582
343.401
343.105
342.548
342.28
341.776
340.998
340.401
339.459
338.92
332.818
333.306
333.976
334.609
335.188
335.829
336.16
336.479
336.702
336.865
336.919
336.666
336.462
335.968
335.792
335.344
334.678
334.101
333.39
332.955
326.911
327.227
327.812
328.289
328.783
329.341
329.607
329.835
330.039
330.197
330.165
330.006
329.828
329.422
329.304
328.945
328.321
327.897
327.338
326.95
320.979
321.166
321.634
321.981
322.42
322.843
322.997
323.184
323.393
323.506
323.449
323.338
323.176
322.876
322.802
322.513
322
321.689
321.261
320.953
315.009
315.079
315.471
315.704
316.027
316.337
316.414
316.558
316.717
316.805
316.771
316.664
316.557
316.36
316.261
316.061
315.705
315.482
315.172
314.985
308.996
309.027
309.331
309.426
309.613
309.806
309.872
309.904
310.034
310.082
310.096
310.009
309.938
309.806
309.739
309.633
309.439
309.267
309.12
308.991
302.991
303.033
303.125
303.145
303.239
303.297
303.31
303.31
303.361
303.379
303.404
303.331
303.316
303.253
303.258
303.234
303.186
303.137
303.074
303.028
346.011
346.872
347.759
348.756
349.666
350.519
350.787
351.419
351.803
351.988
351.768
351.451
351.398
350.955
350.447
349.788
348.965
348.013
347.147
346.28
339.921
340.635
341.38
342.285
343.035
343.8
343.973
344.595
344.889
345.045
344.837
344.538
344.553
344.125
343.696
343.124
342.366
341.588
340.854
340.112
333.743
334.382
334.987
335.816
336.409
337.075
337.199
337.771
338.03
338.106
337.875
337.671
337.687
337.329
336.934
336.422
335.796
335.188
334.546
333.921
327.613
328.14
328.65
329.328
329.801
330.329
330.394
330.972
331.191
331.194
330.988
330.81
330.871
330.498
330.204
329.757
329.3
328.774
328.287
327.719
321.469
321.882
322.331
322.808
323.178
323.593
323.627
324.103
324.309
324.262
324.104
323.959
324.027
323.718
323.501
323.141
322.804
322.415
322.037
321.53
315.33
315.659
315.984
316.247
316.546
316.852
316.885
317.236
317.345
317.313
317.235
317.122
317.163
316.959
316.778
316.517
316.301
316.019
315.779
315.359
309.214
309.392
309.613
309.754
309.94
310.13
310.133
310.373
310.405
310.377
310.367
310.267
310.299
310.165
310.074
309.931
309.796
309.624
309.51
309.228
303.076
303.152
303.201
303.279
303.341
303.389
303.386
303.483
303.479
303.466
303.487
303.438
303.467
303.389
303.384
303.337
303.282
303.227
303.191
303.095
347.156
348.115
349.144
350.017
351.112
351.863
352.391
353.034
353.286
353.295
353.409
353.032
353.017
352.381
351.945
351.295
350.505
349.35
348.57
347.676
340.884
341.706
342.593
343.332
344.309
344.893
345.39
345.987
346.168
346.177
346.239
345.922
345.919
345.395
345.024
344.459
343.726
342.746
342.093
341.311
334.644
335.301
336.042
336.656
337.504
337.979
338.377
338.946
339.07
339.06
339.079
338.817
338.805
338.388
338.115
337.606
336.946
336.141
335.589
334.953
328.371
328.867
329.516
330.012
330.688
331.046
331.423
331.901
331.977
331.934
331.948
331.759
331.685
331.39
331.194
330.735
330.213
329.576
329.109
328.587
322.079
322.468
323.002
323.327
323.879
324.147
324.463
324.838
324.911
324.848
324.788
324.718
324.631
324.431
324.261
323.883
323.485
322.991
322.651
322.247
315.779
316.058
316.454
316.682
317.034
317.268
317.485
317.751
317.823
317.75
317.681
317.63
317.604
317.472
317.335
317.042
316.75
316.399
316.178
315.869
309.463
309.637
309.886
310.032
310.226
310.375
310.504
310.653
310.717
310.658
310.587
310.562
310.586
310.491
310.406
310.215
310.056
309.853
309.702
309.532
303.194
303.253
303.322
303.372
303.42
303.478
303.51
303.556
303.599
303.577
303.553
303.538
303.555
303.514
303.483
303.409
303.385
303.297
303.268
303.22
348.25
349.398
350.641
351.58
352.474
353.132
353.845
354.515
354.721
354.727
354.809
354.697
354.406
353.792
353.583
352.72
351.806
350.798
349.731
348.827
341.857
342.807
343.911
344.69
345.505
346.052
346.671
347.246
347.467
347.392
347.512
347.357
347.125
346.565
346.422
345.697
344.876
344.016
343.047
342.369
335.511
336.217
337.179
337.801
338.505
338.955
339.501
339.997
340.156
340.08
340.185
340.088
339.789
339.387
339.273
338.695
337.967
337.234
336.41
335.879
329.11
329.655
330.421
330.883
331.534
331.878
332.331
332.762
332.903
332.815
332.873
332.825
332.517
332.259
332.151
331.67
331.075
330.453
329.766
329.335
322.648
323.061
323.658
323.983
324.568
324.822
325.132
325.475
325.635
325.548
325.532
325.576
325.274
325.13
324.971
324.68
324.167
323.709
323.182
322.801
316.173
316.459
316.881
317.139
317.572
317.746
317.941
318.22
318.338
318.261
318.253
318.29
318.057
317.979
317.832
317.649
317.228
316.96
316.564
316.27
309.714
309.88
310.126
310.311
310.577
310.678
310.791
310.957
311.041
310.999
310.987
311.009
310.873
310.785
310.712
310.625
310.298
310.17
309.946
309.767
303.259
303.322
303.405
303.458
303.569
303.587
303.648
303.688
303.712
303.712
303.697
303.701
303.655
303.589
303.607
303.571
303.446
303.416
303.34
303.286
349.714
350.533
351.764
352.889
353.882
354.376
355.067
355.765
356.265
356.404
356.492
356.199
355.756
355.318
354.991
354.208
353.235
352.119
350.949
350.031
343.145
343.806
344.874
345.847
346.718
347.149
347.718
348.321
348.755
348.862
348.947
348.686
348.308
347.893
347.646
346.969
346.086
345.157
344.078
343.4
336.541
337.089
337.979
338.781
339.538
339.925
340.388
340.831
341.181
341.311
341.39
341.201
340.906
340.503
340.256
339.726
338.951
338.221
337.282
336.757
329.924
330.369
331.108
331.724
332.34
332.676
333.066
333.411
333.697
333.795
333.863
333.687
333.446
333.153
332.901
332.47
331.858
331.272
330.462
330.059
323.256
323.638
324.219
324.702
325.145
325.45
325.743
326.01
326.198
326.275
326.317
326.177
326.006
325.797
325.582
325.23
324.799
324.335
323.66
323.359
316.635
316.903
317.31
317.674
317.965
318.238
318.364
318.575
318.716
318.769
318.803
318.713
318.559
318.465
318.302
318.002
317.727
317.394
316.854
316.645
309.986
310.163
310.382
310.641
310.796
310.965
311.021
311.147
311.262
311.283
311.333
311.257
311.135
311.08
311.022
310.782
310.66
310.45
310.114
309.969
303.342
303.425
303.49
303.571
303.613
303.668
303.692
303.736
303.795
303.775
303.807
303.795
303.731
303.699
303.705
303.627
303.583
303.513
303.379
303.334
350.718
351.834
353.077
354.301
355.198
356.008
356.463
356.914
357.427
357.515
357.756
357.746
357.302
356.885
356.342
355.391
354.531
353.641
352.386
351.533
344.026
344.945
346.049
347.104
347.795
348.569
348.91
349.329
349.78
349.809
350.048
350.017
349.645
349.287
348.81
347.949
347.212
346.447
345.418
344.686
337.292
338.056
338.962
339.871
340.44
341.095
341.377
341.753
342.131
342.124
342.329
342.332
341.991
341.684
341.311
340.527
339.921
339.261
338.456
337.813
330.545
331.204
331.909
332.661
333.062
333.583
333.835
334.174
334.487
334.49
334.709
334.631
334.32
334.096
333.848
333.174
332.649
332.069
331.433
330.947
323.837
324.323
324.838
325.397
325.689
326.095
326.282
326.582
326.872
326.851
327.022
326.956
326.674
326.505
326.337
325.801
325.398
324.913
324.441
324.07
317.06
317.376
317.71
318.132
318.341
318.655
318.757
319.003
319.197
319.239
319.315
319.287
319.039
318.934
318.843
318.444
318.127
317.776
317.455
317.19
310.271
310.438
310.6
310.856
311.001
311.203
311.289
311.428
311.535
311.581
311.608
311.624
311.42
311.381
311.343
311.099
310.857
310.643
310.493
310.337
303.43
303.512
303.545
303.643
303.696
303.747
303.801
303.847
303.873
303.883
303.884
303.904
303.805
303.828
303.812
303.723
303.641
303.552
303.494
303.472
352.083
352.962
353.91
355.406
356.474
357.066
357.837
358.265
358.803
358.791
358.75
358.88
358.48
358.005
357.492
356.792
355.77
354.786
353.523
352.703
345.195
345.937
346.734
348.008
348.955
349.462
350.045
350.515
350.971
350.929
350.891
351.083
350.648
350.247
349.82
349.167
348.31
347.491
346.399
345.698
338.281
338.872
339.547
340.598
341.422
341.829
342.266
342.698
343.114
343.083
343.03
343.254
342.85
342.433
342.129
341.571
340.855
340.193
339.274
338.686
331.373
331.835
332.394
333.232
333.865
334.171
334.548
334.894
335.263
335.265
335.185
335.376
335.084
334.67
334.47
334.029
333.414
332.871
332.147
331.607
324.424
324.782
325.238
325.88
326.308
326.566
326.864
327.139
327.418
327.465
327.359
327.527
327.309
326.948
326.839
326.477
326.021
325.566
325.008
324.554
317.47
317.727
318.016
318.531
318.812
318.916
319.188
319.394
319.593
319.654
319.565
319.649
319.508
319.225
319.174
318.908
318.611
318.25
317.898
317.561
310.496
310.667
310.808
311.167
311.3
311.347
311.529
311.642
311.756
311.845
311.756
311.79
311.713
311.527
311.577
311.336
311.201
310.965
310.77
310.526
303.509
303.574
303.652
303.744
303.791
303.81
303.861
303.911
303.93
303.989
303.93
303.958
303.911
303.86
303.875
303.783
303.757
303.67
303.613
303.521
352.99
354.112
355.068
356.498
357.46
358.15
358.877
359.331
359.737
359.993
359.937
359.975
359.744
359.14
358.615
357.919
356.788
355.947
354.785
353.627
345.979
346.938
347.746
349.003
349.832
350.38
350.995
351.403
351.769
351.999
351.898
351.959
351.718
351.202
350.756
350.137
349.22
348.481
347.455
346.507
338.948
339.752
340.399
341.456
342.175
342.58
343.148
343.494
343.783
343.963
343.884
343.946
343.751
343.286
342.91
342.386
341.652
341.02
340.121
339.358
331.879
332.574
333.069
333.918
334.502
334.84
335.296
335.543
335.81
335.966
335.852
335.938
335.791
335.426
335.102
334.646
334.071
333.593
332.798
332.209
324.8
325.357
325.728
326.395
326.823
327.091
327.439
327.625
327.861
328.029
327.92
327.936
327.798
327.591
327.291
326.914
326.486
326.151
325.447
325.039
317.719
318.131
318.423
318.861
319.162
319.36
319.615
319.74
319.858
320.051
319.958
319.977
319.846
319.721
319.515
319.225
318.947
318.694
318.169
317.846
310.63
310.861
311.088
311.347
311.511
311.65
311.757
311.843
311.932
312.044
311.992
312.019
311.934
311.863
311.732
311.539
311.409
311.232
310.93
310.7
303.556
303.632
303.725
303.803
303.869
303.923
303.938
303.97
304.003
304.034
304.01
304.046
304.01
303.986
303.952
303.866
303.836
303.76
303.663
303.575
353.79
355.102
356.11
357.322
358.331
359.045
359.98
360.315
360.718
360.921
361.113
361.191
360.768
360.012
359.575
358.767
357.971
357.033
355.802
354.485
346.664
347.789
348.666
349.704
350.574
351.178
351.967
352.279
352.629
352.773
352.959
353.021
352.664
351.989
351.6
350.866
350.237
349.406
348.357
347.209
339.529
340.46
341.225
342.108
342.803
343.264
343.953
344.248
344.529
344.644
344.816
344.856
344.571
343.987
343.607
342.947
342.486
341.787
340.931
339.976
332.408
333.117
333.72
334.473
335.074
335.391
335.994
336.207
336.456
336.528
336.676
336.675
336.463
335.999
335.691
335.086
334.764
334.169
333.51
332.675
325.246
325.732
326.213
326.83
327.326
327.542
328.002
328.19
328.377
328.458
328.529
328.513
328.374
328.026
327.722
327.274
327.081
326.576
326.104
325.368
318.059
318.357
318.724
319.178
319.515
319.671
319.982
320.138
320.272
320.361
320.382
320.357
320.253
320.042
319.819
319.482
319.387
319.006
318.68
318.11
310.856
311.026
311.235
311.508
311.716
311.815
311.976
312.128
312.192
312.24
312.238
312.232
312.178
312.078
311.925
311.718
311.685
311.413
311.214
310.863
303.639
303.703
303.781
303.857
303.932
303.987
304.01
304.061
304.074
304.099
304.104
304.105
304.083
304.068
304.011
303.945
303.93
303.824
303.76
303.617
354.578
355.936
357.048
358.225
359.342
359.909
360.955
361.545
362.002
361.959
362.065
362.189
361.716
361.267
360.595
359.804
358.963
357.827
356.371
355.24
347.361
348.522
349.485
350.449
351.441
351.861
352.813
353.348
353.698
353.662
353.748
353.874
353.466
353.035
352.469
351.778
351.142
350.085
348.868
347.861
340.133
341.074
341.904
342.693
343.553
343.842
344.655
345.147
345.417
345.37
345.454
345.547
345.222
344.864
344.41
343.81
343.264
342.392
341.388
340.483
332.907
333.63
334.299
334.97
335.717
335.861
336.527
336.964
337.146
337.109
337.19
337.272
336.974
336.685
336.314
335.82
335.416
334.694
333.862
333.133
325.611
326.13
326.684
327.186
327.814
327.86
328.426
328.771
328.884
328.829
328.949
329.002
328.748
328.543
328.235
327.894
327.561
327.019
326.334
325.78
318.335
318.651
319.039
319.425
319.889
319.895
320.288
320.6
320.643
320.604
320.722
320.694
320.541
320.434
320.15
319.935
319.662
319.327
318.825
318.415
311.023
311.179
311.427
311.68
311.943
311.924
312.176
312.364
312.411
312.407
312.461
312.404
312.328
312.282
312.119
311.981
311.813
311.625
311.299
311.073
303.706
303.755
303.846
303.905
303.995
304.012
304.065
304.138
304.149
304.162
304.185
304.152
304.141
304.084
304.066
304.031
303.965
303.924
303.785
303.696
355.181
356.37
357.745
358.88
360.283
360.959
361.736
362.27
362.622
362.885
362.996
362.824
362.425
362.011
361.403
360.702
359.787
358.608
357.065
355.952
347.836
348.892
350.087
351.036
352.278
352.83
353.487
353.946
354.31
354.49
354.572
354.388
354.075
353.679
353.183
352.659
351.818
350.756
349.453
348.474
340.469
341.414
342.374
343.187
344.242
344.724
345.232
345.664
345.996
346.097
346.116
346.015
345.73
345.333
344.977
344.605
343.85
342.957
341.895
341.003
333.103
333.937
334.668
335.365
336.183
336.577
336.959
337.334
337.654
337.744
337.739
337.638
337.405
336.99
336.773
336.538
335.873
335.11
334.307
333.589
325.772
326.447
326.931
327.508
328.146
328.451
328.682
329.04
329.281
329.376
329.383
329.293
329.087
328.74
328.591
328.44
327.871
327.33
326.692
326.154
318.405
318.954
319.233
319.66
320.103
320.331
320.491
320.742
320.89
321.015
320.99
320.927
320.801
320.55
320.434
320.322
319.953
319.538
319.112
318.675
311.049
311.4
311.553
311.79
312.056
312.189
312.324
312.467
312.549
312.642
312.625
312.575
312.527
312.338
312.268
312.239
312.005
311.735
311.481
311.196
303.697
303.824
303.869
303.939
304.017
304.085
304.122
304.177
304.185
304.263
304.236
304.211
304.181
304.147
304.108
304.107
304.035
303.956
303.834
303.743
355.588
356.873
358.231
359.668
360.88
361.826
362.529
363.055
363.248
363.695
363.62
363.389
363.365
362.922
362.159
361.321
360.435
359.391
357.718
356.756
348.186
349.338
350.454
351.723
352.785
353.584
354.143
354.65
354.87
355.184
355.061
354.889
354.886
354.538
353.879
353.166
352.352
351.445
350.019
349.167
340.794
341.805
342.671
343.765
344.678
345.381
345.78
346.269
346.486
346.678
346.586
346.405
346.415
346.131
345.577
345.014
344.268
343.471
342.345
341.574
333.42
334.238
334.902
335.835
336.639
337.155
337.448
337.835
338.101
338.198
338.094
337.959
337.919
337.707
337.303
336.84
336.247
335.53
334.678
333.997
326.064
326.6
327.138
327.859
328.565
328.892
329.129
329.403
329.68
329.661
329.6
329.524
329.438
329.337
329.006
328.632
328.179
327.566
326.972
326.476
318.663
318.998
319.355
319.884
320.4
320.649
320.784
320.969
321.239
321.156
321.135
321.061
321.019
320.945
320.729
320.432
320.132
319.679
319.261
318.922
311.242
311.36
311.63
311.915
312.254
312.379
312.509
312.577
312.754
312.674
312.7
312.652
312.606
312.56
312.464
312.278
312.13
311.805
311.548
311.373
303.77
303.786
303.908
303.988
304.116
304.171
304.192
304.213
304.285
304.239
304.279
304.251
304.236
304.223
304.167
304.121
304.084
303.941
303.87
303.793
356.181
357.527
358.883
360.204
361.383
362.2
363.202
363.773
364.029
364.248
364.362
363.946
363.899
363.595
362.692
361.979
360.883
359.808
358.433
357.138
348.727
349.876
351.012
352.209
353.219
353.885
354.777
355.252
355.453
355.668
355.747
355.381
355.388
355.119
354.299
353.636
352.686
351.769
350.648
349.496
341.247
342.214
343.176
344.215
345.049
345.638
346.355
346.721
346.921
347.104
347.129
346.806
346.897
346.609
345.931
345.369
344.562
343.788
342.86
341.921
333.804
334.558
335.316
336.184
336.838
337.374
337.967
338.232
338.403
338.51
338.529
338.261
338.396
338.14
337.574
337.119
336.463
335.807
335.09
334.311
326.365
326.879
327.48
328.111
328.617
329.12
329.538
329.75
329.86
329.95
329.952
329.753
329.887
329.635
329.25
328.884
328.393
327.833
327.34
326.718
318.878
319.195
319.628
320.076
320.446
320.812
321.118
321.275
321.332
321.4
321.374
321.28
321.338
321.154
320.885
320.65
320.319
319.897
319.523
319.146
311.348
311.509
311.778
312.083
312.265
312.514
312.708
312.788
312.787
312.848
312.823
312.792
312.815
312.681
312.526
312.396
312.202
311.94
311.704
311.524
303.797
303.866
303.951
304.048
304.131
304.181
304.258
304.305
304.283
304.293
304.303
304.312
304.311
304.245
304.211
304.154
304.099
304.001
303.91
303.883
356.57
357.724
359.191
360.627
361.692
362.459
363.479
364.096
364.362
364.942
364.897
364.554
364.203
363.844
363.326
362.481
361.373
360.15
358.726
357.62
349.068
349.979
351.286
352.55
353.517
354.128
355.006
355.556
355.725
356.266
356.242
355.898
355.597
355.29
354.837
354.134
353.154
352.05
350.825
349.939
341.514
342.266
343.429
344.452
345.366
345.799
346.538
346.988
347.115
347.616
347.538
347.246
346.985
346.761
346.334
345.796
344.936
343.992
342.957
342.264
334.01
334.585
335.57
336.41
337.175
337.504
338.116
338.489
338.547
339.005
338.888
338.602
338.408
338.258
337.914
337.447
336.703
335.944
335.133
334.542
326.512
326.924
327.721
328.366
328.934
329.174
329.706
329.98
329.97
330.384
330.237
330.012
329.857
329.73
329.49
329.089
328.502
327.964
327.306
326.84
318.989
319.217
319.865
320.3
320.635
320.849
321.239
321.426
321.427
321.704
321.637
321.43
321.317
321.234
321.108
320.741
320.309
319.998
319.489
319.164
311.441
311.52
311.968
312.193
312.386
312.517
312.76
312.904
312.876
313.03
312.997
312.868
312.844
312.749
312.703
312.432
312.149
312.009
311.687
311.505
303.846
303.844
304.017
304.091
304.166
304.213
304.282
304.322
304.317
304.373
304.34
304.312
304.327
304.283
304.269
304.159
304.056
304.041
303.901
303.859
356.679
358.032
359.41
360.747
361.868
362.74
363.761
364.318
364.746
365.048
365.254
364.815
364.513
364.323
363.507
362.71
361.329
360.44
359
358.006
349.128
350.298
351.513
352.615
353.6
354.378
355.228
355.731
356.08
356.331
356.498
356.063
355.838
355.697
355.003
354.35
353.115
352.287
351.105
350.273
341.586
342.595
343.628
344.477
345.321
346.042
346.717
347.165
347.471
347.682
347.776
347.395
347.221
347.078
346.509
345.928
344.913
344.17
343.238
342.534
334.041
334.855
335.699
336.361
337.09
337.675
338.236
338.627
338.874
339.009
339.075
338.732
338.598
338.453
338.044
337.533
336.74
336.102
335.364
334.806
326.522
327.148
327.808
328.311
328.852
329.285
329.787
330.044
330.235
330.333
330.373
330.1
330.022
329.88
329.584
329.184
328.532
328.025
327.478
327.053
319.004
319.443
319.881
320.272
320.643
320.89
321.339
321.468
321.595
321.671
321.704
321.467
321.465
321.33
321.134
320.843
320.361
320.007
319.614
319.311
311.407
311.7
311.947
312.198
312.407
312.528
312.866
312.92
312.977
313.054
313.021
312.886
312.893
312.784
312.74
312.539
312.218
312.005
311.779
311.578
303.839
303.942
304.016
304.097
304.175
304.208
304.313
304.325
304.354
304.394
304.38
304.326
304.326
304.262
304.271
304.204
304.082
304.014
303.958
303.862
)
;

boundaryField
{
    hotSide
    {
        type            fixedGradient;
        gradient        nonuniform List<scalar> 
400
(
389.688
406.187
422.485
438.51
454.187
469.443
484.205
498.401
511.96
524.814
536.896
548.145
558.502
567.912
576.325
583.698
589.991
595.172
599.214
602.098
399.799
416.82
433.638
450.178
466.365
482.122
497.374
512.046
526.066
539.362
551.867
563.515
574.246
584.004
592.737
600.399
606.949
612.355
616.587
619.625
408.914
426.416
443.714
460.73
477.388
493.608
509.313
524.427
538.873
552.58
565.477
577.497
588.577
598.659
607.691
615.624
622.417
628.034
632.446
635.633
416.991
434.928
452.661
470.11
487.196
503.838
519.956
535.472
550.309
564.391
577.647
590.007
601.408
611.789
621.095
629.279
636.296
642.11
646.691
650.017
423.991
442.316
460.437
478.272
495.74
512.759
529.246
545.123
560.309
574.728
588.306
600.973
612.663
623.314
632.87
641.28
648.502
654.496
659.233
662.688
429.884
448.547
467.005
485.176
502.978
520.325
537.136
553.328
568.82
583.535
597.397
610.333
622.278
633.167
642.944
651.556
658.96
665.115
669.992
673.564
434.648
453.595
472.337
490.792
508.875
526.501
543.585
560.045
575.798
590.764
604.868
618.035
630.198
641.292
651.258
660.046
667.607
673.903
678.902
682.579
438.264
457.439
476.411
495.095
513.406
531.257
548.564
565.241
581.206
596.378
610.679
624.036
636.378
647.641
657.765
666.697
674.391
680.805
685.908
689.674
440.72
460.067
479.21
498.067
516.549
534.571
552.047
568.89
585.017
600.346
614.799
628.302
640.783
652.177
662.425
671.471
679.269
685.778
690.965
694.804
442.009
461.467
480.724
499.695
518.292
536.428
554.017
570.972
587.209
602.646
617.204
630.808
643.386
654.873
665.208
674.336
682.21
688.789
694.039
697.934
442.126
461.636
480.947
499.972
518.625
536.818
554.464
571.477
587.771
603.265
617.879
631.538
644.171
655.71
666.095
675.272
683.193
689.815
695.106
699.039
441.071
460.573
479.877
498.897
517.546
535.738
553.384
570.398
586.696
602.195
616.817
630.484
643.127
654.678
665.077
674.268
682.205
688.845
694.154
698.106
438.847
458.28
477.516
496.471
515.058
533.189
550.777
567.738
583.985
599.438
614.017
627.646
640.255
651.777
662.151
671.323
679.245
685.876
691.181
695.134
435.464
454.766
473.874
492.704
511.168
529.18
546.654
563.505
579.648
595.003
609.489
623.033
635.564
647.016
657.328
666.447
674.324
680.918
686.196
690.132
430.931
450.044
468.964
487.608
505.891
523.727
541.03
557.716
573.702
588.906
603.252
616.665
629.074
640.415
650.628
659.659
667.461
673.993
679.222
683.122
425.268
444.131
462.804
481.205
499.249
516.852
533.928
550.395
566.171
581.176
595.333
608.568
620.814
632.005
642.082
650.992
658.69
665.134
670.292
674.138
418.495
437.051
455.421
473.521
491.27
508.584
525.381
541.577
557.092
571.848
585.77
598.784
610.824
621.826
631.733
640.491
648.056
654.387
659.452
663.228
410.641
428.836
446.846
464.592
481.992
498.964
515.428
531.302
546.508
560.969
574.611
587.362
599.158
609.935
619.636
628.212
635.616
641.811
646.765
650.453
401.742
419.522
437.121
454.459
471.459
488.039
504.121
519.626
534.477
548.598
561.917
574.366
585.879
596.396
605.861
614.225
621.445
627.481
632.304
635.89
391.842
409.157
426.294
443.176
459.727
475.868
491.522
506.612
521.063
534.803
547.761
559.869
571.065
581.29
590.489
598.616
605.626
611.484
616.16
619.63
)
;
    }
    coldSide
    {
        type            mixed;
        refValue        uniform 300;
        refGradient     uniform 0;
        valueFraction   uniform 0.991591;
        source          uniform 0;
        value           nonuniform List<scalar> 
400
(
300.021
300.022
300.023
300.023
300.024
300.025
300.026
300.027
300.027
300.028
300.029
300.03
300.03
300.031
300.031
300.031
300.032
300.032
300.032
300.032
300.022
300.023
300.023
300.024
300.025
300.026
300.027
300.027
300.028
300.029
300.03
300.03
300.031
300.031
300.032
300.032
300.032
300.033