/*--------------------------------*- C++ -*----------------------------------*\
| =========                 |                                                 |
| \\      /  F ield         | OpenFOAM: The Open Source CFD Toolbox           |
|  \\    /   O peration     | Version:  2212                                  |
|   \\  /    A nd           | Website:  www.openfoam.com                      |
|    \\/     M anipulation  |                                                 |
\*---------------------------------------------------------------------------*/
FoamFile
{
    version     2.0;
    format      ascii;
    arch        "LSB;label=32;scalar=64";
    class       volScalarField;
    location    "0";
    object      relativeErrorField;
}
// * * * * * * * * * * * * * * * * * * * * * * * * * * * * * * * * * * * * * //

dimensions      [0 0 0 1 0 0 0];

internalField   nonuniform List<scalar> 
3200
(
0.0159611
0.0151195
0.0148807
0.0146924
0.0151885
0.0159291
0.0168325
0.0176729
0.0184923
0.0189563
0.0191912
0.018872
0.018395
0.0176201
0.0170796
0.0165596
0.0164524
0.0166844
0.0171151
0.0178845
0.013645
0.0131756
0.0127488
0.0126545
0.0131798
0.0137025
0.0144715
0.0153447
0.0160961
0.016331
0.0167524
0.0164961
0.0160161
0.0155538
0.0149732
0.0145451
0.0143658
0.0147104
0.0148525
0.0159381
0.0114995
0.0111486
0.0109203
0.010748
0.0111735
0.0116439
0.012552
0.0132093
0.0139857
0.0141785
0.0143221
0.0142024
0.0137745
0.0132985
0.0126576
0.0125217
0.0122114
0.0122625
0.0130061
0.0132425
0.00944294
0.00929347
0.00900735
0.00908483
0.00910478
0.00957287
0.0103014
0.010904
0.0114345
0.0116908
0.0118431
0.0117503
0.0114639
0.0109348
0.0105125
0.0101438
0.00994121
0.0104454
0.0107031
0.0112777
0.00747718
0.00730169
0.00716594
0.00721492
0.00736674
0.00769557
0.0081199
0.00850182
0.00898086
0.00927745
0.00954091
0.00940951
0.00885068
0.00864538
0.00826739
0.00806108
0.008144
0.00803852
0.00828072
0.00890406
0.00537979
0.00536747
0.00497326
0.00519859
0.00521249
0.00560402
0.00605525
0.0062889
0.00641444
0.00662088
0.00681698
0.00690175
0.00656626
0.00634754
0.00606051
0.00585006
0.00576902
0.00597747
0.00607613
0.00646334
0.00329385
0.0033115
0.00312246
0.00314687
0.00342464
0.00331485
0.00352
0.00390218
0.00389271
0.00425629
0.00398388
0.00423309
0.00409938
0.00374378
0.00373776
0.00366181
0.00334534
0.00376777
0.0035784
0.00390722
0.000950154
0.00120094
0.00114432
0.0011255
0.00133747
0.00116162
0.00120848
0.00118781
0.00153551
0.00153433
0.0012955
0.00141013
0.00126469
0.00136733
0.00128601
0.00138761
0.00111319
0.00135737
0.00125502
0.00118457
0.0134296
0.0126647
0.0122101
0.0121992
0.0125078
0.0131067
0.0140826
0.0148732
0.0155498
0.0161125
0.016233
0.0159897
0.0157483
0.0148736
0.0144671
0.0140091
0.0138749
0.0138362
0.0148341
0.015539
0.0115555
0.0113925
0.0108389
0.0106092
0.0110425
0.0116496
0.0122753
0.0129297
0.0139002
0.0140919
0.0144391
0.0141607
0.0136962
0.0130629
0.0126225
0.0122665
0.0120949
0.0124045
0.0130209
0.0137054
0.00988393
0.00951917
0.00906516
0.0091497
0.00931368
0.00991196
0.0106266
0.0112205
0.0119106
0.0119192
0.0122132
0.0121027
0.0117634
0.01131
0.0108174
0.010579
0.0104433
0.0107717
0.0112836
0.0117836
0.00824081
0.00783738
0.00750856
0.0076263
0.00791683
0.00806772
0.00865264
0.00939112
0.009769
0.0103
0.0102957
0.0100887
0.00988866
0.00938896
0.00914184
0.0089059
0.00869884
0.00899791
0.00951732
0.0100082
0.0064167
0.00639059
0.00602211
0.00603422
0.00608452
0.00654942
0.00696683
0.00738556
0.00768391
0.00819226
0.00809696
0.00808028
0.00772218
0.00743485
0.00718019
0.00696585
0.00701991
0.00684649
0.00726916
0.00784008
0.0046829
0.00456285
0.00431825
0.0043647
0.00451004
0.00467487
0.00507218
0.00553572
0.00567027
0.0058541
0.00579137
0.00582107
0.0058106
0.00551282
0.00525005
0.00492731
0.00513593
0.00521104
0.00526638
0.00573551
0.00309668
0.00279504
0.00278622
0.00251487
0.00280947
0.0027552
0.00324018
0.00343889
0.0035343
0.00357137
0.00361292
0.00355659
0.00326906
0.00325887
0.0031997
0.00306957
0.00309252
0.00313591
0.00319721
0.00348409
0.00107417
0.000921516
0.0010064
0.000678533
0.000973685
0.000959622
0.00117019
0.00133098
0.00103289
0.00125901
0.00104365
0.00131791
0.00116372
0.00121106
0.00101971
0.00108987
0.00105488
0.00115262
0.00126047
0.00101583
0.0107275
0.00981131
0.00907444
0.00895531
0.0091677
0.00959918
0.0105209
0.0114325
0.0120937
0.0124157
0.0124584
0.0125341
0.0119929
0.0115897
0.0110188
0.0105612
0.0104774
0.0107895
0.0118079
0.0128266
0.00925744
0.00858447
0.00804387
0.00785471
0.00816054
0.00839767
0.00939137
0.00992209
0.0105466
0.0109497
0.0110802
0.0109631
0.0108072
0.0102083
0.00973617
0.00939264
0.00958055
0.00977819
0.0105643
0.0114946
0.0077791
0.00711214
0.00705829
0.00706559
0.00713107
0.00735789
0.00775976
0.00846388
0.00928646
0.00957241
0.0096309
0.00943043
0.00921728
0.00900444
0.00855477
0.00842378
0.00805559
0.0085083
0.00887934
0.00981415
0.00679299
0.00616099
0.00564074
0.00549121
0.00571046
0.00614858
0.00678426
0.00718246
0.00774212
0.00798491
0.00822541
0.00787883
0.00774944
0.00733
0.00683168
0.00691074
0.00687757
0.00705886
0.00765038
0.00836129
0.00503262
0.00501247
0.004657
0.00475985
0.00465846
0.00487925
0.00531443
0.00566718
0.00606482
0.00633523
0.00637885
0.00629886
0.00600743
0.00604057
0.00573169
0.0054716
0.0054978
0.00546273
0.00619469
0.00685122
0.00384148
0.00353659
0.00329421
0.00338305
0.00341041
0.00346651
0.00403136
0.00401167
0.00444398
0.00468039
0.00462804
0.00461699
0.00462166
0.00425298
0.00416911
0.0040722
0.00416802
0.0042803
0.00429389
0.00469665
0.0022537
0.00223637
0.001897
0.00212657
0.00202518
0.0020647
0.00222978
0.00256025
0.00305231
0.00272641
0.00304466
0.00282253
0.00291651
0.00236128
0.00264949
0.00249392
0.00264289
0.00261044
0.00309062
0.00286769
0.000831451
0.000866653
0.000876478
0.000732901
0.000501895
0.000526098
0.000849749
0.00075907
0.00101152
0.00112744
0.000978104
0.00108727
0.000757216
0.00116511
0.000924353
0.000823766
0.000738312
0.00103547
0.000752504
0.000950978
0.0081571
0.007403
0.00622467
0.00597095
0.00597078
0.00649985
0.00699792
0.00780081
0.0082773
0.00870442
0.00889976
0.00886209
0.00874627
0.00821114
0.00782771
0.007524
0.00750413
0.00821087
0.00917425
0.010181
0.00706872
0.00633513
0.00579381
0.00524699
0.00555858
0.00586258
0.00618102
0.00684237
0.0072918
0.00803169
0.00792209
0.00787709
0.00758769
0.0070514
0.00678224
0.00671947
0.00702036
0.00742332
0.0081393
0.00902264
0.00621169
0.00558754
0.00474204
0.00478962
0.00470037
0.00506144
0.0055135
0.00617365
0.00646545
0.0065834
0.00689843
0.00696665
0.00647802
0.00633325
0.00616201
0.00577971
0.00609419
0.00641752
0.00697286
0.00786086
0.00535859
0.00452024
0.00427886
0.00396736
0.00383101
0.00416558
0.00452338
0.00494447
0.00529818
0.00571912
0.00588211
0.00566902
0.00538983
0.00537217
0.00508946
0.00490165
0.00499748
0.00529917
0.00597613
0.00659949
0.00395983
0.00374758
0.00339112
0.00315201
0.0031806
0.00347027
0.00363181
0.00394149
0.00438463
0.00453255
0.00464599
0.00473032
0.00458882
0.00413977
0.00405959
0.00376817
0.00408914
0.00437946
0.00471626
0.00518031
0.003041
0.00272284
0.00225963
0.00213159
0.0021346
0.00227191
0.00264643
0.00301178
0.00319291
0.00318413
0.00342626
0.00315965
0.00299908
0.0029336
0.00305755
0.00283825
0.00281787
0.00323533
0.00369002
0.00381448
0.00187391
0.00143554
0.00165603
0.00137638
0.00132979
0.00135803
0.0016749
0.00175831
0.0018888
0.00185459
0.00215477
0.00199357
0.00208241
0.00191063
0.0017485
0.00171357
0.00197332
0.00193894
0.00200051
0.00237642
0.00029971
0.000545365
0.000454507
0.000382047
0.000458266
0.000567963
0.000532252
0.00073131
0.00062329
0.000701617
0.000638986
0.000755538
0.000677185
0.00065577
0.00068906
0.000490911
0.000894234
0.000711832
0.000646698
0.000712773
0.00595677
0.00483524
0.0038313
0.00346333
0.00343085
0.00375394
0.0040172
0.00456559
0.00510049
0.00542682
0.00563423
0.0054086
0.00532172
0.00510795
0.00465314
0.00472415
0.0050094
0.00560655
0.00697583
0.00812368
0.00529472
0.0044297
0.00350317
0.00306536
0.00308017
0.0032573
0.00353307
0.00421924
0.00460847
0.00489642
0.00496311
0.00478042
0.00477329
0.00462637
0.0044137
0.00434986
0.00437642
0.00521667
0.00613545
0.00715702
0.00456585
0.0038683
0.00309587
0.00276247
0.00254767
0.00287691
0.00311864
0.00373498
0.00389181
0.00412167
0.00468111
0.00437303
0.00398482
0.00379588
0.00392681
0.00373785
0.00386152
0.00457668
0.00541536
0.00619528
0.00376614
0.00326475
0.00284379
0.00223836
0.00234142
0.00250229
0.00268361
0.00311799
0.00314494
0.00344064
0.003658
0.00370274
0.0033898
0.0032248
0.00308245
0.00350167
0.00342
0.00369741
0.00456489
0.00536527
0.00307967
0.00224781
0.00219584
0.00187995
0.0019158
0.00196563
0.00221466
0.00238766
0.00260579
0.0030063
0.00296128
0.00307103
0.00299956
0.00297033
0.00284954
0.00256399
0.00267955
0.00296932
0.00382688
0.00445256
0.00221972
0.00179628
0.00165892
0.00153547
0.00127702
0.00136766
0.001593
0.00180455
0.00198566
0.00211067
0.00212279
0.00206673
0.00222618
0.00178013
0.00179908
0.00172828
0.00220166
0.00215243
0.00263083
0.00314883
0.00134174
0.00124366
0.000986441
0.000704872
0.0008792
0.000939563
0.00111703
0.0011576
0.00119821
0.00147727
0.00142875
0.00115516
0.00122588
0.00112975
0.00102934
0.000894651
0.00134682
0.00126258
0.00152403
0.00190601
0.000226667
0.000356404
0.00041318
0.000486026
0.000376704
0.00010141
0.000374423
0.000239809
0.000497889
0.000433832
0.000522148
0.000555929
0.0003759
0.000318686
0.00048628
0.000567002
0.000492665
0.000603576
0.000485506
0.000780831
0.00469839
0.0033209
0.00211112
0.00151608
0.00126848
0.00121951
0.0015656
0.00191672
0.00232996
0.00245746
0.00295967
0.00282425
0.00244023
0.00222629
0.00232632
0.00233532
0.00285116
0.00394416
0.00508803
0.00663173
0.00425451
0.00323122
0.00220592
0.00143374
0.00107351
0.00102536
0.00148912
0.0017654
0.00216095
0.00249421
0.00255106
0.0025806
0.00243092
0.00221574
0.00231422
0.00239157
0.00299146
0.00350425
0.00455925
0.00585073
0.00328178
0.00252386
0.00169257
0.00141793
0.00093461
0.00101144
0.00110387
0.00148746
0.00188951
0.00204756
0.0022494
0.00219149
0.00208685
0.00195628
0.00190877
0.00194772
0.00241785
0.00308867
0.0042593
0.00518145
0.00291799
0.00206052
0.00140844
0.00106784
0.000880691
0.000815419
0.00110948
0.00138996
0.00155307
0.00182791
0.00185776
0.00185841
0.00189283
0.00183729
0.00194572
0.00176767
0.00211192
0.00258856
0.00348685
0.00414457
0.00240341
0.00159312
0.0011529
0.0011176
0.000567258
0.000729841
0.00105539
0.00102271
0.00124333
0.00154659
0.00165685
0.00164166
0.00146492
0.00124418
0.00131731
0.00141133
0.00178477
0.00228861
0.00279942
0.00322922
0.00159339
0.0014832
0.000873076
0.000796058
0.000374809
0.000592174
0.000602212
0.000673625
0.000987134
0.000992678
0.00112435
0.00124699
0.00140385
0.00121471
0.000880837
0.00119533
0.00102778
0.00154319
0.00214505
0.00237072
0.00107916
0.000820083
0.000592175
0.000456647
0.000406097
0.00052301
0.000439542
0.000577004
0.000667604
0.000734604
0.000834684
0.000700507
0.000656387
0.000686477
0.000490682
0.000742893
0.000712469
0.000918547
0.00145827
0.0015422
0.000470807
0.000201801
0.000215855
0.000197684
0.000104813
1.99224e-06
0.000178207
5.29959e-05
0.000126889
0.000355521
0.000253878
0.00032683
0.000440143
0.000549461
0.000254748
0.000341215
0.00021131
0.000424869
0.000330961
0.000490989
0.00368918
0.00238212
0.000998996
0.000136712
0.000489634
0.000493711
0.000300428
0.000171995
0.000120795
0.000493507
0.000646333
0.00040848
0.000485089
0.000435961
0.000714493
0.000681902
0.00148763
0.00262525
0.00388273
0.00566493
0.00337721
0.00221189
0.000864472
0.000127257
0.000330182
0.000422851
0.000261858
7.58252e-05
0.000243703
0.000494408
0.000551257
0.000436712
0.00035755
0.000498418
0.000396002
0.000839824
0.00149641
0.00258245
0.00370994
0.00507585
0.00294297
0.0018742
0.000814435
0.000257341
0.000276625
0.000345544
0.000135078
0.00011491
0.000269784
0.000555543
0.000506915
0.000554483
0.000403291
0.000346349
0.000661429
0.000938767
0.0013628
0.0020944
0.00334311
0.0044101
0.00246917
0.00165059
0.000852662
8.45588e-05
0.000139475
0.000322122
0.000134936
6.21188e-06
0.000315001
0.000438378
0.000667753
0.000303761
0.000614679
0.000350862
0.00065577
0.000842386
0.00128822
0.00193501
0.00280102
0.00375288
0.00180001
0.00117541
0.000735888
0.000293635
0.000267091
3.88061e-06
8.15216e-05
1.21269e-05
0.00035474
0.000375444
0.000417339
0.000413752
0.000418727
0.000521336
0.000479462
0.000739369
0.00114286
0.00183031
0.00226443
0.00303906
0.00126261
0.000851054
0.000535151
9.56203e-05
4.91159e-05
4.92575e-05
3.29136e-06
0.000215764
0.000102082
0.000515064
0.000417496
0.000347245
0.000278001
0.000395087
0.000431362
0.000422816
0.000608143
0.00132659
0.00151441
0.00213989
0.000971998
0.000583122
0.000285272
9.60871e-05
5.40926e-05
7.92799e-05
6.65889e-05
7.03558e-05
0.000198827
8.41336e-05
0.000182787
6.88844e-05
0.000206257
0.000170496
0.000328611
0.000414821
0.00039735
0.000686329
0.000899899
0.00149197
0.000205642
0.000268601
0.000285207
7.4813e-05
0.000122576
0.000125472
5.3506e-05
0.000246108
5.75278e-05
0.000111698
2.87086e-05
7.03176e-05
6.12239e-05
0.000223636
6.27166e-06
0.000245985
0.000145116
6.66008e-05
0.000432405
0.000553404
0.00357452
0.00225455
0.000509885
0.00049982
0.00116587
0.00179267
0.00161429
0.00144075
0.00125081
0.00116495
0.00112202
0.00100721
0.000984649
0.000841785
0.000534383
5.42451e-05
0.000658391
0.00207545
0.00376699
0.00547344
0.00318803
0.00203279
0.000453862
0.000475973
0.00106116
0.00129005
0.00141458
0.00124945
0.00109411
0.00109433
0.000899504
0.000676855
0.000941229
0.000792461
0.000526691
0.000280518
0.000985672
0.00185001
0.00338103
0.00481413
0.0029084
0.00156065
0.000598004
0.000423549
0.000919672
0.00120795
0.0010787
0.00109754
0.000882725
0.000927225
0.00062439
0.00069861
0.00064027
0.00056791
0.000359503
1.80807e-06
0.00095896
0.00181927
0.00316701
0.00416199
0.00242132
0.00142234
0.000563292
0.000242632
0.00066969
0.000741932
0.00089027
0.00088666
0.000593709
0.000683488
0.000392759
0.000343688
0.000245868
0.0002384
0.000129064
0.000120861
0.000713159
0.00143483
0.00254311
0.0036528
0.00151026
0.00109536
0.000436003
0.000164545
0.00068023
0.000663794
0.000746664
0.000727832
0.000546729
0.000442863
0.000416958
0.000174578
0.000325831
0.000331035
6.99979e-05
0.000313274
0.000489997
0.00135508
0.00213088
0.0027909
0.00136196
0.000858766
0.000239148
0.000163646
0.000529505
0.00048887
0.00070622
0.00059974
0.000503402
0.000370661
0.000174352
0.000180562
3.72513e-05
0.000163135
0.000184551
0.000128698
0.000750685
0.000946653
0.00169003
0.00224193
0.000989023
0.000512608
0.000350056
0.0001746
0.000273213
0.000162047
0.000262681
0.00030448
0.00035301
0.000210063
0.000309631
2.73972e-05
0.000130339
0.000110968
5.23914e-05
0.000214673
0.000379914
0.000597606
0.000888125
0.00143133
0.000503241
8.23467e-05
8.88969e-05
8.32089e-05
0.000144459
0.000171965
3.47171e-05
0.000109289
0.00012292
7.3297e-05
8.78218e-07
9.77916e-05
7.36e-06
2.25499e-05
2.88537e-05
0.000128457
2.14757e-05
3.80518e-05
0.000365448
0.000363536
0.00425789
0.00251846
0.000712756
0.000347458
0.00128765
0.00178657
0.00221949
0.00226926
0.00222434
0.00208241
0.00184016
0.00194213
0.0018967
0.00152266
0.000923951
0.00044703
0.000669418
0.00227925
0.00406616
0.00579093
0.00386602
0.00222738
0.000702813
0.000344847
0.00112452
0.00154046
0.00185574
0.00195314
0.00193361
0.00146684
0.00161082
0.00160114
0.00149526
0.000921775
0.000727592
0.000148963
0.000699845
0.00218328
0.00384615
0.00534721
0.00333683
0.00195691
0.000749197
0.00028936
0.000974412
0.00120177
0.00152732
0.00161319
0.00157805
0.00138293
0.00115696
0.00129408
0.00123012
0.000946167
0.000626674
5.19493e-05
0.000767936
0.0019159
0.00335868
0.00459189
0.00274042
0.00167273
0.000742728
0.000104253
0.000836504
0.00113805
0.00110119
0.00120523
0.00104095
0.000988477
0.00112048
0.000869153
0.000879246
0.000480759
0.000430545
0.000237541
0.00065301
0.00182621
0.00294749
0.00395429
0.00231168
0.00146996
0.000481074
0.000223663
0.000616478
0.000803955
0.000862965
0.00108626
0.000878063
0.000831103
0.00062696
0.000636206
0.000789843
0.000496624
0.000313006
0.000253791
0.000927115
0.00120074
0.00239152
0.00326429
0.00140481
0.00102486
0.000496155
1.66354e-05
0.000259905
0.000358919
0.000645305
0.000649974
0.000632129
0.000785431
0.00063879
0.00067805
0.000480878
0.000391027
3.18915e-05
2.17096e-05
0.00053584
0.000931617
0.00172485
0.00226124
0.000957515
0.000648125
0.000197436
8.45754e-05
0.000367404
0.000455095
0.000343502
9.67777e-05
0.00023043
0.000578
0.000549561
0.000158535
0.00020961
0.000222969
0.000193646
5.86772e-06
0.00026303
0.000728859
0.00123626
0.00168798
0.000310232
0.000330154
1.65158e-05
8.94692e-05
4.66558e-05
8.35527e-05
0.000304748
2.00705e-05
0.000377867
0.000220341
0.000304371
7.54093e-05
0.000212232
0.000177056
0.000213327
0.00010858
2.26845e-05
0.000401769
0.000233298
0.000471209
0.00558523
0.00376284
0.00186057
0.00028507
0.000786089
0.00164089
0.00189457
0.00239756
0.00205296
0.0021283
0.00214434
0.00196357
0.00161446
0.00139977
0.000775687
1.2468e-05
0.00147642
0.00310124
0.0050677
0.0068636
0.00504187
0.00343563
0.00167996
0.000359915
0.000740839
0.0011944
0.00162017
0.0017363
0.00181641
0.00187884
0.00178157
0.00169564
0.00129615
0.00105593
0.000409916
0.000180631
0.00136625
0.00294005
0.00462706
0.00635101
0.00431357
0.0030202
0.00143114
0.000585656
0.000458513
0.001012
0.00119642
0.00152679
0.00152206
0.00134572
0.00154445
0.00133797
0.0010929
0.000839722
0.000398979
0.000367921
0.00136632
0.00267469
0.00429216
0.0056434
0.00357931
0.00252306
0.0011123
0.00033903
0.000142251
0.000936928
0.00098839
0.00106212
0.0013102
0.00121559
0.00112016
0.000926646
0.00088938
0.000631772
0.000252443
0.000427294
0.0011078
0.00220582
0.0036176
0.00474941
0.00286719
0.00174691
0.00104808
0.000324705
0.000346199
0.000531628
0.000630387
0.00112612
0.00106272
0.00110785
0.00072715
0.000764331
0.00069749
0.000658903
0.000280498
0.00034042
0.00102952
0.00207896
0.00291887
0.0037703
0.00201987
0.00114441
0.00097524
0.000271402
3.60389e-05
0.000466627
0.000743467
0.000814604
0.000604089
0.000621216
0.000734849
0.000731596
0.00052178
0.000414215
6.54041e-05
0.000437895
0.000733636
0.00145382
0.00203202
0.00281354
0.00145945
0.000854585
0.000353884
0.000154726
0.000337736
0.000198146
0.0004054
0.00043241
0.000261576
0.000384164
0.000330639
0.000500375
0.000419787
0.000139563
0.000127099
0.000118283
0.0004243
0.00105126
0.00137768
0.00182123
0.000575796
0.000382262
0.000109687
1.37097e-05
0.000147291
0.000159564
0.000193482
7.56225e-06
0.000185059
2.34394e-05
1.6404e-05
0.0001905
7.77627e-06
0.000167648
4.06798e-05
3.04808e-05
0.000161652
0.00036769
0.000629799
0.000535932
0.00781948
0.00575065
0.00362029
0.00196101
0.000637194
0.000337043
0.000718003
0.00142107
0.00142698
0.00137329
0.00135125
0.00121719
0.00112517
0.000501413
0.00035406
0.00149636
0.0030336
0.00468674
0.00710202
0.00892025
0.00691039
0.005006
0.00311913
0.001762
0.00046005
0.000378699
0.000679799
0.00108137
0.00115296
0.00133998
0.00106773
0.000951232
0.000687822
0.000294324
0.000476991
0.00139342
0.00287798
0.00431421
0.00643607
0.00795272
0.0058443
0.00451368
0.00302363
0.00161765
0.000442592
0.000155224
0.000550143
0.00113067
0.00100945
0.00119256
0.000891838
0.000645721
0.00054185
9.78863e-05
0.000525089
0.0013467
0.00275316
0.00394366
0.00557121
0.00714264
0.00506589
0.00361806
0.002371
0.00147407
0.00039243
0.000126785
0.000196991
0.000696103
0.000724374
0.000804966
0.000577344
0.000531763
0.000325788
7.42076e-06
0.00070889
0.0014667
0.00228324
0.00330694
0.00496687
0.00606603
0.00401789
0.00321459
0.00218809
0.000990424
0.000409221
8.68676e-05
0.000332412
0.000562586
0.000504002
0.000350325
0.000701265
0.000338325
0.000314543
2.62431e-05
0.000444655
0.000994891
0.00193509
0.00286171
0.00389805
0.00466724
0.00275846
0.00211757
0.00148671
0.000804062
0.000365182
6.70739e-05
0.000194124
0.00032218
0.000512168
0.000617641
0.000362514
0.000277828
0.000382206
7.71553e-05
0.000523158
0.000817196
0.00121487
0.0021049
0.00273803
0.00346111
0.00183772
0.00136229
0.000801653
0.000433599
9.50477e-05
1.89111e-05
0.000130697
0.000348393
5.38712e-05
1.23311e-05
0.000269703
0.000119088
0.000292086
1.64805e-05
0.000176779
0.000685808
0.000783668
0.00114484
0.00155456
0.00223956
0.000820059
0.000475075
0.000287866
5.84539e-05
0.000160569
9.94e-05
0.000187641
0.000117968
0.000373327
7.82337e-05
0.000237249
0.000116411
9.92526e-05
0.000104062
1.12153e-05
0.000208717
8.20954e-05
0.000533755
0.000608231
0.000752252
0.0107875
0.00835013
0.00593816
0.00417277
0.00272093
0.00181472
0.000826484
0.00040907
4.2395e-05
3.22605e-05
7.94243e-05
0.000411725
0.000856621
0.00132465
0.00233598
0.00351969
0.00515546
0.00714972
0.00941047
0.0116752
0.00930249
0.00744349
0.00549599
0.00378541
0.00240328
0.00153007
0.000932041
0.000381054
0.000236914
0.000196235
7.10968e-05
0.000308689
0.000689211
0.00139893
0.00196611
0.00329551
0.00468578
0.0064939
0.00835423
0.0106151
0.00803069
0.00633155
0.00469935
0.00326136
0.0023778
0.00151114
0.00071527
0.000373984
0.000248628
0.000100808
0.000175536
0.000474526
0.000880794
0.00120079
0.0019664
0.00287649
0.00432586
0.00593467
0.00758105
0.00918899
0.00662992
0.0053285
0.00405072
0.00278946
0.00195441
0.0011913
0.000630712
0.000403367
0.000246355
0.000189594
0.000165134
0.000502483
0.000727722
0.00127972
0.0017292
0.00254437
0.0036971
0.00496081
0.00624703
0.00752124
0.00544376
0.00439373
0.00315478
0.00233114
0.00134467
0.00104258
0.000565816
0.000352354
0.000126903
0.000122315
0.000245412
0.000338601
0.000491008
0.000887768
0.00154762
0.00205193
0.00302072
0.00379876
0.00501305
0.00626919
0.0038922
0.0033444
0.00223374
0.00188202
0.00102761
0.000708228
0.000411637
0.000239747
0.00027106
0.00029736
0.00017197
0.000377974
0.000489274
0.000874426
0.00110059
0.00165068
0.00228956
0.00300025
0.00377626
0.00453123
0.00237345
0.00187878
0.00161824
0.000980666
0.000692189
0.000394556
0.000141393
4.68654e-05
0.000141754
0.000167855
0.000262765
0.000374629
0.000368971
0.000376311
0.000814577
0.00102585
0.00129323
0.00164371
0.0024447
0.00288872
0.000792537
0.000629807
0.000583825
0.000320904
7.03259e-05
0.000281873
7.8579e-05
0.000147642
4.05484e-06
8.04941e-05
7.82306e-05
8.57613e-05
0.000108237
0.000349401
0.000380112
0.00023634
0.000406034
0.000546554
0.000663466
0.000935973
0.0141964
0.0118375
0.009331
0.00728663
0.00557114
0.00428236
0.00331314
0.00282364
0.00231767
0.00224283
0.00226015
0.00270376
0.00324946
0.00400491
0.00513113
0.00627787
0.00834933
0.0103465
0.012819
0.0152486
0.0123401
0.0105848
0.00823979
0.006568
0.00505358
0.0039111
0.00315553
0.0026139
0.00216579
0.00201817
0.00225298
0.00256994
0.00289093
0.00370498
0.00457102
0.00571945
0.00742533
0.0093078
0.0118795
0.0135366
0.0108732
0.00915738
0.0072647
0.00562522
0.00443325
0.00346295
0.00277063
0.00249962
0.00225451
0.0019016
0.00196261
0.00232486
0.00259256
0.003276
0.00418413
0.00536803
0.00679734
0.00843518
0.0101622
0.0118861
0.00902859
0.0076198
0.00618174
0.00484746
0.00382425
0.00283935
0.00251321
0.00190767
0.00174715
0.00190623
0.00202567
0.00174577
0.00243424
0.00292284
0.00358656
0.00444291
0.00566996
0.00700772
0.00856595
0.00994305
0.00717491
0.00621561
0.00505189
0.00365196
0.00309093
0.00242299
0.00190078
0.00149593
0.00153539
0.00149552
0.00131641
0.00160186
0.00174944
0.00214378
0.00289919
0.00365758
0.00444271
0.00560775
0.00694028
0.00812534
0.00525247
0.00449512
0.00341754
0.00297665
0.002273
0.00168752
0.00147652
0.00137845
0.00113939
0.00121459
0.00118079
0.00133007
0.00152105
0.00161546
0.00222877
0.00267525
0.00341013
0.00423415
0.00505586
0.00610639
0.00314691
0.00283353
0.00219135
0.00172991
0.00130151
0.00120169
0.000807481
0.000575441
0.000824066
0.000484939
0.000679332
0.000800091
0.000649948
0.00122115
0.00153987
0.00176245
0.0019843
0.0026376
0.00306403
0.00361011
0.00100096
0.000980987
0.000637503
0.000484437
0.000398762
0.000259815
0.000193793
0.000361348
0.000160115
0.000358384
0.000356265
0.000135189
0.000373285
0.000511381
0.000408015
0.000612757
0.000816501
0.00104913
0.00100376
0.00145712
0.0184442
0.0161954
0.0133628
0.0113445
0.00943181
0.00779755
0.00678604
0.00613896
0.00564341
0.00550579
0.00558682
0.00582207
0.00650949
0.00735908
0.00857453
0.0100548
0.0119825
0.0143629
0.0169799
0.0194165
0.0163032
0.0142571
0.0122018
0.00998399
0.00853008
0.00710175
0.00598879
0.00546364
0.00526764
0.00518697
0.00504055
0.00535906
0.00593552
0.00667635
0.00773144
0.00916273
0.0108216
0.0131715
0.0152752
0.0175371
0.0141052
0.0121509
0.0105617
0.00851686
0.00741605
0.00623906
0.0053225
0.00490308
0.00457057
0.00439636
0.00458552
0.00486422
0.00526016
0.00580367
0.00680277
0.00799114
0.00940709
0.0115185
0.0132896
0.0150822
0.0119442
0.0103856
0.00882817
0.00742105
0.00622133
0.005389
0.00440856
0.00421056
0.00392397
0.00365486
0.00395551
0.00405952
0.00446332
0.00510743
0.00575859
0.00672458
0.00812174
0.00956132
0.0114405
0.0128903
0.00957546
0.00848361
0.0071156
0.00607653
0.00508154
0.00421609
0.00359623
0.00333191
0.00320475
0.00298748
0.00314279
0.00331507
0.0036985
0.00416327
0.00475883
0.00544019
0.00659563
0.00768968
0.00910424
0.0100766
0.00712038
0.00604616
0.00524904
0.00436311
0.00375935
0.00314914
0.00271578
0.00254378
0.00234906
0.0024726
0.00227666
0.00227881
0.00265082
0.00286816
0.00364964
0.00417678
0.00480411
0.00552086
0.00670232
0.00736908
0.00426316
0.00369411
0.00321055
0.00272006
0.00233135
0.00197185
0.00173202
0.00131037
0.00148981
0.00153298
0.00136207
0.00202828
0.00163223
0.00197895
0.00231986
0.0026373
0.00280892
0.00372668
0.00405731
0.00447737
0.00162297
0.00135498
0.00109495
0.000867377
0.000910365
0.000695501
0.000874672
0.000373587
0.000548339
0.000613472
0.000422338
0.000372334
0.000425877
0.000612604
0.000867825
0.000911777
0.00123313
0.0012834
0.0014358
0.00169645
0.0235114
0.0210542
0.0183698
0.0159262
0.0138671
0.0123348
0.0111738
0.010347
0.00978826
0.00965065
0.00946882
0.00993249
0.0106782
0.0115883
0.0128814
0.0144926
0.0166474
0.0190894
0.021949
0.0243238
0.0207715
0.0186646
0.0164366
0.01414
0.0124947
0.0110764
0.0100106
0.00931749
0.00883246
0.00858883
0.00872822
0.00892639
0.00966227
0.01055
0.0115732
0.0132185
0.0149851
0.0170809
0.0198801
0.0217702
0.0181489
0.016167
0.0142912
0.0124415
0.0108632
0.00976248
0.00873898
0.00813204
0.00777127
0.00766184
0.00777025
0.00799871
0.00828088
0.00933803
0.0101761
0.0115513
0.0131089
0.0150814
0.0172313
0.0190284
0.0153609
0.0136408
0.0120462
0.0105576
0.00928707
0.00830412
0.00706682
0.00692938
0.00657224
0.00646511
0.00655243
0.00666981
0.00719994
0.00791388
0.00882028
0.00980781
0.0112022
0.0127498
0.0144999
0.0162022
0.0121156
0.010964
0.00954748
0.00875425
0.00732376
0.00654621
0.00589215
0.0056306
0.0052594
0.00506423
0.00514204
0.00553408
0.00596537
0.00616851
0.00705418
0.00784266
0.00898832
0.0101739
0.0117371
0.0129304
0.00885679
0.00811343
0.00716134
0.00634381
0.00560922
0.00492405
0.00452919
0.00404105
0.00395961
0.00373758
0.00376141
0.00424531
0.00436073
0.00474859
0.00515797
0.00578696
0.00649677
0.00767164
0.00867304
0.00940084
0.00558628
0.00520173
0.0045114
0.00371877
0.00344138
0.00275182
0.00280267
0.00264141
0.00245987
0.00243023
0.00261752
0.00266931
0.0027161
0.00299993
0.00325423
0.00370566
0.00434993
0.00462544
0.00529649
0.00597973
0.00212158
0.00194004
0.00173082
0.00143204
0.00109946
0.00111355
0.00102363
0.000767044
0.000708398
0.000789829
0.000818787
0.000678651
0.00113942
0.000875154
0.00112236
0.00129567
0.00143495
0.00144856
0.00178377
0.0021645
0.0295047
0.0266156
0.0240985
0.0214269
0.0191605
0.0175119
0.0160907
0.015225
0.014738
0.0141483
0.014635
0.0148322
0.015619
0.0165039
0.0178451
0.019802
0.0219744
0.0244169
0.0274843
0.030184
0.0259807
0.0239046
0.0212233
0.0190886
0.0172999
0.0155963
0.0143813
0.0135392
0.0132732
0.0129624
0.0130368
0.0133876
0.0139946
0.0148514
0.0160624
0.0177692
0.0196854
0.021959
0.0245531
0.0269707
0.0225074
0.0207741
0.01843
0.0164903
0.0148963
0.0137583
0.0127404
0.0119567
0.0115397
0.0112513
0.0115591
0.0117851
0.0121636
0.0131102
0.0142045
0.0154224
0.0172216
0.0193402
0.0214592
0.0236416
0.019011
0.0174018
0.0155257
0.0140631
0.0125728
0.0115666
0.0108914
0.0102673
0.00988644
0.00948874
0.00953089
0.0101947
0.0104516
0.0109864
0.0118838
0.0130756
0.0146563
0.0161898
0.0181981
0.0198119
0.0152103
0.0138852
0.0126233
0.0111625
0.0101933
0.0092724
0.00853875
0.00809853
0.00778127
0.00770648
0.00772096
0.00805407
0.00819919
0.0089321
0.00975845
0.0105796
0.0118361
0.0132151
0.014579
0.015722
0.0110925
0.0103743
0.00926661
0.00834544
0.00747642
0.00676204
0.00656038
0.00592166
0.00571918
0.0058299
0.0058063
0.00599048
0.00615363
0.00670487
0.0071427
0.00776347
0.00874099
0.00968537
0.0107878
0.0116731
0.00684474
0.00633281
0.00559282
0.00513602
0.0046768
0.00455796
0.00399209
0.00365137
0.00353607
0.00357785
0.00376195
0.00370654
0.00366084
0.00402115
0.00449123
0.00483231
0.00553801
0.00582431
0.00688869
0.00729223
0.00214061
0.00203883
0.00182734
0.00181493
0.00178998
0.00140744
0.00132339
0.00131588
0.00134939
0.00123189
0.00113228
0.00130599
0.00138107
0.00149706
0.0017831
0.00173275
0.00170946
0.00196003
0.00236415
0.00249915
0.0355321
0.0327702
0.0300336
0.0275698
0.0251772
0.0234048
0.0219096
0.0208548
0.0201783
0.0199508
0.0200898
0.0205523
0.0209651
0.0221235
0.0236503
0.025551
0.0280878
0.0306704
0.0336267
0.0364389
0.0317633
0.0292257
0.0268317
0.0244349
0.0224051
0.0207942
0.0194795
0.018839
0.0180861
0.0178204
0.018104
0.0185022
0.0189514
0.0197251
0.0210474
0.0230346
0.0250239
0.0273229
0.0299706
0.032441
0.0274944
0.0255264
0.0233252
0.0212532
0.0198058
0.0182006
0.0170944
0.0163328
0.0158133
0.0156348
0.0158095
0.0160063
0.0166239
0.0173481
0.0187441
0.0200064
0.0218489
0.0239702
0.0261585
0.0281575
0.0232413
0.0216275
0.0196179
0.0181075
0.0163477
0.0154558
0.0143982
0.0137904
0.013358
0.0132684
0.0132539
0.0135471
0.014149
0.0147126
0.0158805
0.0169557
0.0186318
0.0202756
0.0221636
0.0237833
0.0184815
0.0172044
0.0155911
0.0144762