/*--------------------------------*- C++ -*----------------------------------*\
| =========                 |                                                 |
| \\      /  F ield         | OpenFOAM: The Open Source CFD Toolbox           |
|  \\    /   O peration     | Version:  2212                                  |
|   \\  /    A nd           | Website:  www.openfoam.com                      |
|    \\/     M anipulation  |                                                 |
\*---------------------------------------------------------------------------*/
FoamFile
{
    version     2.0;
    format      ascii;
    arch        "LSB;label=32;scalar=64";
    class       volScalarField;
    location    "0";
    object      relativeErrorField;
}
// * * * * * * * * * * * * * * * * * * * * * * * * * * * * * * * * * * * * * //

dimensions      [0 0 0 1 0 0 0];

internalField   nonuniform List<scalar> 
3200
(
0.00386779
0.00575681
0.00756119
0.0086185
0.00935632
0.00941193
0.00895683
0.00911662
0.00885222
0.00854917
0.00842565
0.00808636
0.00826223
0.00839634
0.00868334
0.00899256
0.00848012
0.00756083
0.00625175
0.00411979
0.00280033
0.00495991
0.00646002
0.00750848
0.00754365
0.00801043
0.00782312
0.00742859
0.00719709
0.00708911
0.00717909
0.0070643
0.00732183
0.00738277
0.00773539
0.00761283
0.00732126
0.00668867
0.00512374
0.00343765
0.00239254
0.00390924
0.00507956
0.00610689
0.00628004
0.00644761
0.00626554
0.00627719
0.00586745
0.00592427
0.00543575
0.00579547
0.00542657
0.00601279
0.00640679
0.00636141
0.00588511
0.00534849
0.00418336
0.00299317
0.00189263
0.00306489
0.00427758
0.00476386
0.00483756
0.0053286
0.00508815
0.00492584
0.00477215
0.00472619
0.00473404
0.00458874
0.00468415
0.00484417
0.00497073
0.00512114
0.00477342
0.0043209
0.00345817
0.00249858
0.00157309
0.00209717
0.00309685
0.0039944
0.00414752
0.00395623
0.00420168
0.00376335
0.00397294
0.00382297
0.00324631
0.00366463
0.0035674
0.00365352
0.00389104
0.00375197
0.00382003
0.00354806
0.00247489
0.00188555
0.000884503
0.00150994
0.00226804
0.00252437
0.00261953
0.00293804
0.0026459
0.00237864
0.00254714
0.00243895
0.00246113
0.00255215
0.00248025
0.00280432
0.00272365
0.00267443
0.00270386
0.00249796
0.00192249
0.00131477
0.000473799
0.000973236
0.00103654
0.00158229
0.00156702
0.00184461
0.00167083
0.00154976
0.00161721
0.0015064
0.00136892
0.00146401
0.00135584
0.00146374
0.00174517
0.00147545
0.00162204
0.00132798
0.00104524
0.000736096
0.00035273
0.000264132
0.000445574
0.000421564
0.000637138
0.000481521
0.000618373
0.000610413
0.000334757
0.000561046
0.000547587
0.000395768
0.000726689
0.000665633
0.000688676
0.000699501
0.000642553
0.000407801
0.000320361
0.000150142
0.00368482
0.00592404
0.00725455
0.00870229
0.00905837
0.00921442
0.00903395
0.00838859
0.00816677
0.00790076
0.00791525
0.00779411
0.00805935
0.00792999
0.00807836
0.00839182
0.00815725
0.00754145
0.00577042
0.00411215
0.00311613
0.00465905
0.00630757
0.00715705
0.00738726
0.00775089
0.00722906
0.006988
0.0068416
0.00659005
0.00644281
0.00651208
0.00645019
0.00688569
0.00720624
0.00728154
0.00690393
0.00629204
0.00492871
0.00352826
0.00254844
0.00367807
0.00525907
0.00579996
0.0061324
0.00613398
0.00615919
0.00579828
0.00552312
0.00541914
0.0052723
0.00530066
0.00534897
0.00547947
0.00617996
0.00598026
0.00602859
0.00538939
0.0044831
0.00268577
0.00167776
0.0031072
0.0038297
0.00458667
0.00460461
0.005121
0.00508773
0.00454693
0.00449701
0.00457068
0.00426936
0.00420729
0.0045366
0.00505928
0.00494623
0.00486355
0.00447837
0.00443838
0.00339313
0.00238499
0.00129199
0.00235214
0.00295894
0.00353883
0.00401884
0.00370684
0.00383753
0.00346614
0.00348518
0.00336166
0.0034209
0.0032072
0.003197
0.0034131
0.00361985
0.00371631
0.00355809
0.00326689
0.00260598
0.00167618
0.00104928
0.00139779
0.00199329
0.00258848
0.00268271
0.00275572
0.00256875
0.00264124
0.00235589
0.00244593
0.0022597
0.00226335
0.00225311
0.00263116
0.00263331
0.00272245
0.00272602
0.002416
0.00181232
0.0010639
0.000289366
0.000802585
0.00105765
0.00124158
0.00153194
0.00170517
0.00127446
0.00163846
0.00125891
0.00135507
0.00128949
0.00139991
0.00155072
0.00144714
0.00164597
0.00147586
0.00153352
0.00128996
0.000885998
0.000715127
0.00017213
0.000279336
0.000374802
0.000356328
0.000521568
0.000547885
0.000530512
0.000416504
0.000481672
0.000671623
0.000470094
0.000423741
0.000487916
0.000531951
0.000424373
0.000490847
0.0005672
0.000447314
0.000505159
0.000359008
0.00360928
0.00556352
0.00719115
0.0081702
0.00876742
0.00848388
0.00841303
0.00810827
0.00732323
0.00685986
0.00701117
0.00696298
0.00706244
0.00711003
0.00786571
0.00791992
0.0079369
0.00704381
0.00543776
0.00366542
0.00287619
0.00433302
0.00611673
0.0068319
0.00732564
0.00719694
0.00709553
0.00676757
0.0063676
0.00588798
0.00563252
0.00579453
0.00601066
0.00623623
0.00663262
0.00668988
0.00688356
0.00612623
0.00482302
0.00340962
0.0021382
0.00349557
0.00495013
0.00549433
0.00615937
0.00575314
0.00577661
0.00527774
0.00507545
0.00489197
0.00467119
0.00483684
0.00491968
0.00525188
0.00565343
0.00565174
0.00549428
0.00513013
0.00402474
0.00265312
0.00167437
0.00270395
0.0038239
0.00435304
0.00470707
0.00484084
0.00483337
0.00439866
0.00418109
0.00356471
0.00376355
0.00383058
0.00397669
0.00394185
0.00459158
0.00445981
0.00432628
0.00418716
0.00331617
0.00213043
0.00125081
0.00212809
0.00281275
0.00314196
0.00372241
0.00370447
0.00333169
0.00337482
0.0029913
0.00298542
0.00283856
0.00271342
0.00296765
0.00337337
0.00356449
0.00337958
0.00321689
0.00302603
0.00265314
0.00164071
0.000773626
0.00176013
0.00202374
0.00228211
0.00255281
0.00259321
0.0023925
0.00212461
0.00205619
0.00214435
0.001847
0.00185041
0.00211936
0.00225752
0.00228239
0.00252463
0.00233454
0.00243861
0.00176709
0.00126176
0.000515131
0.000788486
0.00132909
0.00130914
0.00167504
0.00146574
0.00168595
0.00141321
0.0012696
0.00120287
0.00142963
0.00113059
0.00142907
0.00132767
0.00161973
0.00148134
0.00127268
0.00120409
0.00119094
0.000492395
0.000210714
0.000235587
0.000377771
0.00021528
0.000663419
0.000325782
0.000351441
0.00048174
0.000312586
0.000491912
0.000457893
0.000498697
0.000420366
0.000485356
0.000414691
0.000542951
0.000357665
0.000598692
0.000469836
0.000166276
0.00328461
0.00537756
0.00704616
0.0078546
0.00815383
0.00774235
0.00756766
0.00719662
0.00646068
0.00598821
0.00571298
0.00558521
0.00613235
0.0065724
0.00696204
0.00732343
0.00707311
0.00664977
0.00529189
0.00355453
0.00274172
0.00431142
0.00568365
0.00632431
0.00657707
0.00644894
0.00658884
0.00588612
0.00510879
0.00481435
0.00468899
0.00490152
0.00492433
0.00543584
0.00589794
0.00645588
0.00627839
0.00576763
0.00438521
0.00290499
0.00193582
0.00356431
0.00447885
0.00554939
0.00561675
0.0053003
0.0053636
0.00495508
0.00453677
0.00388826
0.00370701
0.00393156
0.00427386
0.00442831
0.00505088
0.00522255
0.0049749
0.00452751
0.0032604
0.00255666
0.00149759
0.00265641
0.00369382
0.00415983
0.00421115
0.00424681
0.00410125
0.00386934
0.00364983
0.00344607
0.0030718
0.00341974
0.00360495
0.00349272
0.00389
0.00414255
0.00422176
0.00361994
0.00279906
0.00208288
0.00114788
0.00204488
0.0028518
0.00316121
0.00343543
0.00330732
0.00322195
0.00272578
0.00275895
0.00258721
0.00257782
0.00247317
0.00263665
0.00295761
0.00279457
0.00314982
0.003444
0.00276137
0.00227695
0.00150325
0.000896601
0.00126775
0.00200429
0.00223654
0.00232277
0.00232573
0.0022288
0.00230821
0.0020187
0.00179282
0.00153769
0.00140042
0.00160999
0.00203128
0.00235346
0.00222347
0.00225335
0.0022213
0.00181336
0.00128466
0.00027046
0.000799509
0.000989176
0.00136109
0.00137842
0.00129435
0.00136873
0.000946772
0.00121767
0.000973005
0.00117674
0.000924371
0.00101896
0.00125413
0.00124693
0.00133584
0.00120626
0.00128004
0.00110055
0.000811048
0.000161815
0.000337844
0.000312214
0.00025331
0.000407304
0.000453242
0.000269996
0.000501733
0.000662677
0.000445345
0.000205361
0.000484944
0.000501378
0.000440886
0.000431876
0.000655581
0.000610253
0.000495083
0.000467225
0.000376429
0.00296077
0.00489273
0.00651891
0.00740915
0.00768254
0.00703015
0.00696352
0.00606068
0.00561971
0.00528977
0.00468836
0.00496411
0.0052879
0.00584485
0.00649792
0.00676496
0.00661251
0.00593859
0.00460387
0.00293029
0.00226398
0.00418049
0.00516964
0.00588733
0.00623792
0.00601469
0.0057529
0.00513763
0.00469848
0.00393604
0.00365592
0.00388323
0.00432326
0.00465626
0.00515487
0.00537792
0.00561086
0.00509643
0.00388159
0.00258968
0.00175143
0.00329851
0.00413416
0.00497903
0.00499788
0.00521602
0.00452246
0.0041932
0.00389424
0.00335591
0.0032461
0.00330549
0.00354588
0.00383453
0.00427655
0.00467777
0.00454366
0.00412066
0.0031858
0.00200049
0.00131353
0.00221518
0.00303529
0.00376563
0.00405899
0.00395096
0.00368855
0.00343938
0.0030293
0.00247349
0.00248383
0.00254881
0.00295559
0.0032945
0.00317972
0.00360995
0.00383578
0.00319668
0.00266371
0.00143994
0.000908648
0.00202308
0.00259834
0.00254844
0.00309821
0.00334593
0.00274278
0.00236756
0.00222182
0.00201669
0.0018108
0.00188649
0.00225851
0.00212638
0.00269803
0.00281957
0.00282882
0.00267151
0.00204005
0.00154997
0.000622945
0.00114991
0.00162228
0.00207402
0.00209583
0.00218399
0.00175885
0.00172145
0.00136267
0.00142077
0.00134836
0.00150644
0.0013107
0.00174116
0.00172504
0.00172989
0.00204771
0.00186908
0.00135689
0.000927604
0.000616756
0.000617457
0.00118378
0.00114421
0.00124685
0.00112353
0.00110094
0.000856497
0.00076315
0.000995143
0.00081219
0.000702656
0.000904014
0.000964036
0.00108938
0.00114345
0.00115288
0.00108044
0.000955699
0.000648622
0.000311714
0.000115668
0.000172122
0.000396787
0.000391963
0.000396243
0.000180508
4.08726e-05
0.000363116
0.000300408
0.00038049
0.00014748
0.000215988
0.000403291
0.000231338
0.000661008
0.000500525
0.000273914
0.00023927
0.000180057
0.00252862
0.00443042
0.00584551
0.00696558
0.00703562
0.00692911
0.00624017
0.00535867
0.00483503
0.00421319
0.00385927
0.00396525
0.00418569
0.00482145
0.00546403
0.00578902
0.00580199
0.00527047
0.00422061
0.00284595
0.00232121
0.003326
0.00473791
0.00547477
0.00580925
0.00545322
0.00502961
0.00426949
0.00391736
0.00351965
0.00304954
0.00309338
0.00333141
0.00401185
0.00463706
0.00488347
0.00505391
0.00461821
0.00352933
0.00210716
0.001376
0.00283474
0.0039517
0.00433286
0.00464404
0.00443292
0.00424652
0.00375863
0.00316108
0.0026917
0.00230241
0.00250963
0.00263642
0.00327145
0.0034594
0.00408453
0.00426068
0.00386255
0.00280456
0.00169755
0.00109662
0.00190948
0.00297244
0.00339399
0.00353858
0.0035171
0.00347217
0.00289907
0.00246565
0.00224647
0.00167066
0.00207214
0.00239076
0.00238254
0.00283316
0.00319847
0.00327179
0.00314117
0.00233062
0.001577
0.00106714
0.00142197
0.00214924
0.00252642
0.00277115
0.00274548
0.00239875
0.00215457
0.00190195
0.00166999
0.00128379
0.00113259
0.0014619
0.00195637
0.00234667
0.00233111
0.00252862
0.00227281
0.00174489
0.00101183
0.000401926
0.00107781
0.00154545
0.00196285
0.00210083
0.00192121
0.00176221
0.00111649
0.00119247
0.00118275
0.000928068
0.00121413
0.00134098
0.00122953
0.0014246
0.00171911
0.00172622
0.00147917
0.0013819
0.000910234
0.000326136
0.000920838
0.000919535
0.00124643
0.000998831
0.00141124
0.000947503
0.000815761
0.000759797
0.000630263
0.000538374
0.000520314
0.000725895
0.000835968
0.000834157
0.00115565
0.00109585
0.00102318
0.000563373
0.000402677
0.000165572
0.000139385
0.00024279
0.000380935
0.000263348
0.000428223
0.000374418
8.06352e-05
0.000150535
0.000288482
0.000291983
4.64781e-05
0.000404134
0.000345817
0.000341035
0.000316591
0.00052976
0.000480408
7.15715e-05
0.000277969
0.00241036
0.0041256
0.00528441
0.00608654
0.00632515
0.00602748
0.00564904
0.00483986
0.00394421
0.00342368
0.00311763
0.00283286
0.00333386
0.00403203
0.00446512
0.0055143
0.0053452
0.00466799
0.00380739
0.00208184
0.00166
0.00321761
0.00445424
0.00506199
0.00518675
0.00517148
0.0043862
0.0039909
0.00329299
0.00265359
0.0024009
0.0023947
0.00284891
0.00326618
0.00379269
0.00431435
0.00452842
0.0040648
0.00308914
0.00178317
0.0013422
0.0024453
0.00316735
0.00400051
0.00418394
0.00418204
0.00372973
0.00312009
0.00250087
0.00208085
0.0016449
0.00173642
0.00217266
0.00268819
0.00311502
0.00337922
0.00372047
0.00310056
0.00256376
0.00163246
0.000710648
0.00180174
0.00270613
0.00312263
0.00348834
0.00316859
0.00299455
0.00247769
0.00202981
0.00151921
0.00140339
0.00110883
0.00155433
0.00239987
0.00228234
0.0026835
0.00284761
0.0024453
0.00185105
0.00123647
0.000490417
0.00152095
0.0019896
0.00223432
0.00244715
0.00250161
0.00211572
0.00163191
0.0014938
0.0011284
0.00125094
0.000826512
0.00116892
0.0013024
0.00182015
0.00231257
0.00238699
0.00179181
0.00133626
0.000886705
0.000388323
0.000898419
0.00119923
0.00173017
0.00185943
0.00165255
0.00155143
0.00129087
0.00087397
0.000845775
0.000525813
0.000838978
0.000841286
0.00119925
0.00126413
0.00131476
0.00162569
0.00136422
0.000979438
0.000594751
0.00020848
0.000591001
0.000720553
0.00127622
0.00100577
0.00103014
0.00111944
0.000914779
0.000684896
0.00052494
0.000491563
0.000347782
0.000629252
0.000703981
0.000976556
0.000789797
0.000762575
0.000804862
0.000720275
0.000388051
0.00024073
0.000362088
0.000206634
0.000213043
0.000397428
0.000195424
0.000127918
0.00027729
0.000231402
0.000325648
0.000124199
0.000485303
5.15314e-05
7.27302e-05
0.000226839
0.000364615
0.00038554
0.00027721
0.00025484
7.88294e-05
0.00200406
0.00351596
0.00471098
0.00568371
0.00589956
0.00564786
0.00498674
0.00423043
0.00334289
0.00264125
0.00213308
0.00221282
0.00256991
0.00320459
0.00406319
0.004712
0.00442203
0.00391716
0.00275321
0.00150865
0.00138365
0.00271831
0.00401119
0.00463828
0.00500442
0.0046819
0.00409801
0.00349594
0.00248696
0.0019553
0.00155661
0.00179502
0.00200806
0.00279411
0.0030957
0.0034755
0.00378458
0.00339051
0.00240598
0.00160125
0.000887508
0.00239544
0.00317686
0.00383803
0.00362258
0.00369545
0.00309367
0.0024528
0.00201412
0.00179554
0.00115509
0.00105184
0.00155342
0.00217545
0.00251618
0.0030383
0.00355116
0.00306955
0.00230819
0.00129276
0.000701837
0.00144604
0.00235759
0.00293873
0.0028957
0.00279598
0.0026332
0.00217412
0.00132302
0.0010835
0.000827454
0.00100204
0.00127784
0.00143926
0.00205949
0.00241755
0.00244527
0.0021063
0.00173393
0.00062421
0.000494043
0.00115783
0.00163656
0.00215795
0.00222381
0.00215833
0.00174534
0.00182769
0.00125153
0.000679028
0.000510249
0.000602649
0.000973218
0.00129221
0.0015868
0.00181442
0.00183989
0.00182058
0.00133843
0.000766775
8.61285e-05
0.000523754
0.00136373
0.00142265
0.00169069
0.00131233
0.00126107
0.00123583
0.000647341
0.000453999
0.000312988
0.000453701
0.000370848
0.000882966
0.00135226
0.00114532
0.00134369
0.00106129
0.000848595
0.000508974
0.00043539
0.00034191
0.000709743
0.00113411
0.000990902
0.000994598
0.0007398
0.000609687
0.000574704
0.000122414
0.000363614
0.00020737
0.000317349
0.000654501
0.000575619
0.000933736
0.000776509
0.000782869
0.000720871
0.000452668
4.61219e-07
0.000317869
0.000290764
0.000138566
0.000315451
0.000313817
0.000136293
0.00016715
2.12116e-05
0.000261981
0.000117574
0.000165622
9.75851e-06
4.85419e-05
0.000257518
2.25832e-05
0.000501789
0.000302373
0.00024585
0.000221746
0.00178287
0.00303587
0.0043452
0.00511564
0.00525281
0.00518138
0.00463348
0.003925
0.00292962
0.00223881
0.00176877
0.00197746
0.00230474
0.00284832
0.00329378
0.00406232
0.00403089
0.00388245
0.00275937
0.0011066
0.0013422
0.00244752
0.00369488
0.00425066
0.00418892
0.00438311
0.00360228
0.00295088
0.00223145
0.00169307
0.00121581
0.00132797
0.001735
0.00213291
0.00279808
0.00331837
0.00376051
0.00327804
0.00222297
0.00135828
0.000813957
0.00188843
0.00281512
0.00344032
0.00355902
0.00323845
0.00296595
0.00238739
0.00184001
0.00126571
0.00097086
0.0010805
0.00137294
0.00187403
0.00214657
0.00275618
0.00282086
0.00251213
0.00191998
0.000928854
0.000533047
0.00111266
0.00193859
0.00258003
0.00250812
0.00245484
0.00240822
0.00178547
0.00131555
0.00108853
0.000574211
0.000808102
0.000799002
0.0011294
0.00196704
0.00212094
0.00206685
0.0022966
0.0012128
0.000710213
0.000221444
0.000987342
0.00147719
0.00192176
0.00192067
0.00165577
0.00177202
0.00135699
0.000803206
0.000814458
0.000379498
0.000190244
0.000636004
0.000973915
0.00124687
0.00129514
0.00188733
0.00154475
0.000948044
0.000411231
8.98909e-05
0.000658707
0.00105345
0.00113085
0.00148607
0.00137385
0.00111407
0.00102257
0.000605567
0.000356293
0.000130394
0.000200811
0.000116348
0.000560174
0.00100294
0.0011396
0.00121919
0.00108384
0.00104768
0.000487478
9.47724e-05
0.000301214
0.000308221
0.000725984
0.000921486
0.000680996
0.000697272
0.00054473
0.000675348
0.000187824
0.000248096
2.73013e-05
0.000241766
0.000593229
0.000596478
0.000707098
0.000723126
0.000583547
0.000659051
6.88787e-05
3.22757e-05
0.000209851
0.000470033
0.000132827
0.000487629
0.000129796
0.000408416
0.000266182
0.000260488
0.000138936
9.97894e-05
0.000175277
0.000154889
0.000178802
0.000118386
0.000140391
0.000208947
0.000502692
0.000194635
0.000220556
0.00151355
0.00314414
0.00427776
0.00507976
0.00546773
0.0050292
0.00461632
0.00373977
0.0029706
0.00235758
0.0013545
0.00163299
0.002275
0.00251468
0.0032458
0.00382723
0.00385283
0.00336897
0.00249606
0.00116081
0.00091225
0.00220055
0.00331907
0.00399347
0.00409866
0.00416985
0.00346751
0.0031139
0.00225042
0.00148921
0.00146554
0.00109335
0.00156908
0.00210975
0.0026464
0.00324437
0.00329725
0.00292635
0.00198823
0.00102291
0.000710325
0.00176021
0.00276118
0.00324786
0.00333269
0.0031804
0.00275385
0.00229452
0.0015478
0.00120843
0.000713253
0.000826407
0.00104104
0.00181621
0.00209147
0.00236324
0.00251739
0.00236298
0.00189669
0.00092695
0.000468251
0.0013147
0.0021808
0.002467
0.00276698
0.00258742
0.00206678
0.00150689
0.00127281
0.000794696
0.000778947
0.000287548
0.000747543
0.00115486
0.00169668
0.00192008
0.00208069
0.00173557
0.00130415
0.000795593
0.000319329
0.000698212
0.00160531
0.00172036
0.00183266
0.00190699
0.00171205
0.00129867
0.000848333
0.000511439
0.000133138
0.000287987
0.000490789
0.0010138
0.00107235
0.00148516
0.001541
0.00149007
0.000987574
0.000387941
0.000204102
0.000782583
0.000940288
0.00121608
0.0011918
0.00128684
0.00116552
0.00067965
0.000547075
0.000581192
0.000196858
0.000266643
0.000360895
0.000506496
0.00073864
0.000924848
0.00123592
0.00120665
0.000580575
0.000568921
0.000229531
0.000216038
0.000558842
0.000703775
0.000618175
0.000718268
0.00075762
0.000628481
0.000394976
0.000429189
0.000155901
9.30117e-05
0.000300865
0.000368365
0.000507775
0.000704239
0.000653909
0.00065892
0.000288847
0.000201483
0.000193831
9.38211e-05
0.000226494
0.000154943
0.000211341
0.000438826
0.000347458
7.35574e-05
0.000194281
6.07774e-05
8.4958e-05
0.000334496
0.000137781
0.000180715
0.000384546
0.000209296
0.000331953
0.000431273
0.00019234
0.000132743
0.0019038
0.00336183
0.00442292
0.00498746
0.00521023
0.00495176
0.00438736
0.00364382
0.00291047
0.00204404
0.00187928
0.00184053
0.00233719
0.00288506
0.00335714
0.00379056
0.00367438
0.00361984
0.00251441
0.00116022
0.00142944
0.00260428
0.00311398
0.00413712
0.00426812
0.00394093
0.00375368
0.00281835
0.0021764
0.00167696
0.00136214
0.00114187
0.00169802
0.00229334
0.00282513
0.00325394
0.00315872
0.00294899
0.00210229
0.00116621
0.000660768
0.00178325
0.00273778
0.00337809
0.00329862
0.003133
0.00287534
0.00223281
0.00179532
0.00105749
0.000608899
0.00102425
0.0012592
0.00182373
0.00208448
0.00241019
0.00275042
0.0022959
0.00176152
0.000875598
0.000378897
0.00139427
0.00207578
0.00259416
0.00256195
0.00241551
0.00228618
0.00172521
0.00112053
0.000964935
0.000659434
0.000780387
0.000844876
0.00127565
0.00175175
0.00212831
0.00203175
0.00171825
0.00128056
0.000824295
0.000360239
0.00086422
0.00141615
0.00178331
0.00167987
0.00158119
0.00182106
0.00109034
0.000800696
0.00075939
0.000339243
0.000409969
0.000560221
0.00103493
0.00132151
0.00131971
0.00152474
0.00137833
0.00118357
0.000741723
0.000130252
0.000443502
0.000879817
0.00132355
0.00116216
0.00142055
0.00115082
0.000966379
0.000588471
0.000283688
0.000172538
0.00044194
0.000397466
0.00084275
0.000932861
0.00110105
0.00134117
0.00099427
0.000871728
0.000350868
0.000154887
0.000338238
0.000643318
0.000731945
0.00111099
0.000574455
0.000746361
0.000801477
0.000232497
6.97114e-05
8.70054e-05
9.64648e-05
0.000192173
0.000298296
0.000590204
0.000783963
0.000624858
0.000608428
0.000460988
0.000269415
0.000177042
7.84473e-05
3.67003e-05
0.000163444
0.000464472
0.000176105
7.73494e-05
0.000131888
0.000169237
0.0002333
1.46986e-05
5.08405e-05
7.8744e-05
2.83312e-06
0.000139174
3.48695e-05
0.000319014
3.36054e-05
0.000116936
3.46165e-05
0.0020906
0.0033411
0.00447889
0.00513036
0.00528945
0.00520898
0.00490758
0.00395125
0.00326942
0.00276534
0.00231383
0.00205508
0.00276119
0.00316854
0.00372086
0.00394213
0.00399804
0.00367686
0.00268549
0.00154822
0.00182215
0.00253762
0.00359174
0.00407287
0.0044919
0.00423331
0.00418312
0.00324521
0.00259927
0.00190624
0.00170479
0.00144201
0.00207019
0.00253574
0.00327123
0.00327538
0.00346651
0.00306325
0.00218261
0.00135921
0.00111719
0.00192172
0.00279887
0.00334544
0.00339458
0.00337208
0.00305061
0.00245384
0.00196883
0.00169926
0.00124823
0.00114568
0.00164032
0.00196904
0.0024131
0.00250888
0.00280103
0.00248577
0.00192652
0.00112327
0.00107187
0.00142759
0.00218202
0.00259315
0.00283548
0.00266155
0.00223752
0.00177084
0.00131786
0.00103071
0.000866314
0.000821195
0.00117273
0.00142808
0.00168776
0.00217265
0.00251344
0.00214835
0.00130888
0.000964334
0.00034479
0.000839147
0.00166275
0.00175425
0.00200079
0.0020089
0.00180258
0.00149388
0.00112247
0.000571051
0.000468555
0.000620883
0.000826319
0.000928029
0.00130002
0.001742
0.00154432
0.00144507
0.00122821
0.000500874
0.000126485
0.000720299
0.00127884
0.00125315
0.00122042
0.0014748
0.0012842
0.000949097
0.000839058
0.000411493
0.000416983
0.000592451
0.000464882
0.000571337
0.00108054
0.00139506
0.00100251
0.0013582
0.000927179
0.0003614
3.21191e-05
0.000542006
0.00073795
0.000571043
0.00076298
0.000813928
0.000788259
0.00063858
0.000476955
0.000430703
0.000504205
0.00026099
0.000138246
0.00045556
0.000708151
0.000683187
0.000687049
0.000762342
0.000425723
0.000381949
0.000220941
0.000163029
7.29817e-05
0.000155548
0.000182406
0.000159084
0.000255393
8.43145e-05
0.000124892
0.000155395
0.000213749
0.000128595
0.000135907
0.000252761
8.15429e-05
0.000338335
9.67896e-05
8.05014e-05
0.000211266
0.000219528
0.00259162
0.00388014
0.0049478
0.00556276
0.00582871
0.00591694
0.00535621
0.00461193
0.00402766
0.00334323
0.00305257
0.00323413
0.00336185
0.00365502
0.00428292
0.00450224
0.00442644
0.00427149
0.00345546
0.00218864
0.00196005
0.00273508
0.0038543
0.0046079
0.00466728
0.00477173
0.00440871
0.00389099
0.00303671
0.00269702
0.0023427
0.00244792
0.00282776
0.00314629
0.00338059
0.00372716
0.00368926
0.00337222
0.00260059
0.00175972
0.00126351
0.0023825
0.00321618
0.00382638
0.00371728
0.0035754
0.00349292
0.00299505
0.00275853
0.00207262
0.00174054
0.00178185
0.00231544
0.00227673
0.00281153
0.00315149
0.00318334
0.00291238
0.00225089
0.00136758
0.000836927
0.00145116
0.00234602
0.0028118
0.00308807
0.00273568
0.00249036
0.00228559
0.00176566
0.00164399
0.001278
0.0015093
0.00159316
0.00203062
0.00220462
0.0024516
0.0023872
0.00254657
0.00167872
0.00107862
0.000490859
0.00111282
0.00151938
0.00211011
0.00238427
0.00232984
0.00192146
0.00182463
0.00138278
0.00120234
0.000962019
0.00094577
0.00119472
0.00141213
0.00152164
0.00158124
0.00174051
0.00156384
0.00124513
0.00085324
0.000265292
0.00106082
0.00124538
0.00126011
0.00133345
0.00147071
0.00130643
0.00129878
0.00081032
0.000528282
0.00062504
0.00070668
0.000957944
0.00108266
0.00105504
0.0011915
0.00118226
0.00142474
0.000866169
0.000728634
5.4481e-05
0.000490004
0.000775335
0.000997096
0.000925194
0.000937732
0.000938575
0.000532023
0.000774979
0.000340463
0.000252576
0.000385196
0.000245067
0.000886249
0.000763596
0.00077083
0.000897754
0.000574083
0.000560647
0.000194216
7.73405e-05
0.000226478
0.000174021
0.000118805
0.000328719
0.000278112
0.000327492
0.000314453
0.000186709
8.56819e-05
0.000226994
0.000226433
0.000304756
0.000193818
0.000228714
0.000163775
0.000473699
0.000144885
0.000360884
7.84521e-05
0.0033623
0.00440635
0.00568148
0.0062324
0.00663471
0.0067715
0.00586968
0.00557697
0.00514547
0.00446953
0.00401494
0.00431509
0.00427077
0.00472081
0.00495313
0.00528201
0.00502184
0.00472297
0.00374643
0.00295244
0.00247497
0.00364657
0.00436259
0.00499788
0.00538231
0.00528098
0.00498099
0.00447208
0.00406382
0.00381663
0.00337931
0.00310787
0.00368681
0.00383131
0.00414975
0.00448498
0.004526
0.00388838
0.00323368
0.00259566
0.00178791
0.00278598
0.00327852
0.00407658
0.00410099
0.00433476
0.00404204
0.00344216
0.00336003
0.00299127
0.00261234
0.00277956
0.00267729
0.00320997
0.00359315
0.00356814
0.0034933
0.00331313
0.00262331
0.00215915
0.0012371
0.0022436
0.00294372
0.00308124
0.00338824
0.00346374
0.00307917
0.00296565
0.00220352
0.00226223
0.00219043
0.00172865
0.00227367
0.0025291
0.00296651
0.00281112
0.00304492
0.00246403
0.00206899
0.00126212
0.000896632
0.00156098
0.00200541
0.00249633
0.00254965
0.00240286
0.00249182
0.00223213
0.00165576
0.00168791
0.00152752
0.0012808
0.00179017
0.00164296
0.00206062
0.00202367
0.00222546
0.00199781
0.00172684
0.00122948
0.000762368
0.00111466
0.00160388
0.00150113
0.00164472
0.00181947
0.00169644
0.00141894
0.0014081
0.0010172
0.000660202
0.00117298
0.000928986
0.00134147
0.0014439
0.00142326
0.00138523
0.00124036
0.00147969
0.000678775
0.000391794
0.000674637
0.000777597
0.00112751
0.000933295
0.00125928
0.00104174
0.000934296
0.000975956
0.000723367
0.000787483
0.000613064
0.000809233
0.000735378
0.00117148
0.000928449
0.000924014
0.000958935
0.000856432
0.000571871
0.000161561
0.000357953
0.000163003
0.00032922
0.000298727
0.000329892
0.000208186
0.000302121
0.000274408
0.000288971
0.000425017
0.000188902
0.00024245
0.000238459
0.000358844
0.000385051
0.000302236
0.000410958
0.000283563
0.000249464
0.00426768
0.00515403
0.00646255
0.00692718
0.00753771
0.00743996
0.00713154
0.00672319
0.00627428
0.00572108
0.00558271
0.00542092
0.00532817
0.00576631
0.00617496
0.00619272
0.00613356
0.00561056
0.00496532
0.00396096
0.00318169
0.00439463
0.00524196
0.00594324
0.00602473
0.00620901
0.00587016
0.00559789
0.00501768
0.00472692
0.00447257
0.00434453
0.00468805
0.00487034
0.00507096
0.0053121
0.00528129
0.00509453
0.00382213
0.00326581
0.00250658
0.00328799
0.00417784
0.00457698
0.00509496
0.00501731
0.00464804
0.00423402
0.00412076
0.00363589
0.00344586
0.00379688
0.00381808
0.00396625
0.00430039
0.00416384
0.00410715
0.00409281
0.00327983
0.00276771
0.00200289
0.00250563
0.00315959
0.00360517
0.00376254
0.00380124
0.00370685
0.00332027
0.00308446
0.00283122
0.00289482
0.00303907
0.00301157
0.00300537
0.00347005
0.00360123
0.00329262
0.00310431
0.00252484
0.00241598
0.00136781
0.0017807
0.0022981
0.0027634
0.00301832
0.00300315
0.00273166
0.00260379
0.00258234
0.00205212
0.00205612
0.00220643
0.00221011
0.00236092
0.00247603
0.0027169
0.00240526
0.0023776
0.00213875
0.00163384
0.00108909
0.00128774
0.00175932
0.00206079
0.00214852
0.00185582
0.00188508
0.0019774
0.00158576
0.00145665
0.00146813
0.00157843
0.00170466
0.00140422
0.00182967
0.00189288
0.00209144
0.00167904
0.0013465
0.00102435
0.000572614
0.000676214
0.0010674
0.000972245
0.00144814
0.00131586
0.00139451
0.000834635
0.00100355
0.000801057
0.000966334
0.00110734
0.00084027
0.000754258
0.00118511
0.00138296
0.00139283
0.00124571
0.00079798
0.000703245
0.00034241
0.000145587
0.00041773
0.000307263
0.000412941
0.000287196
0.000332861
0.000258661
0.000355733
0.000386049
0.000557774
0.000280892
0.00026844
0.000228393
0.000362558
0.000363344
0.000245727
0.000251979
0.000476921
0.000242855
0.00529137
0.00653097
0.00760795
0.00825427
0.00828319
0.00862781
0.00837177
0.00805207
0.00779793
0.00745985
0.00697525
0.0067834
0.00709063
0.00724328
0.00754133
0.00757801
0.00755072
0.00679467
0.00607666
0.00484371
0.00426372
0.00525036
0.00621888
0.00694051
0.00706725
0.00717409
0.00712375
0.00667454
0.00649688
0.00604618
0.00570786
0.00581692
0.00570781
0.00597301
0.00625095
0.00634844
0.00616123
0.00562266
0.00512101
0.00435109
0.00346955
0.00400215
0.00483476
0.00566253
0.00590698
0.00558308
0.005658
0.00552031
0.00513433
0.0048304
0.00481009
0.00454267
0.00465186
0.00502953
0.00524951
0.00527215
0.00531348
0.00473461
0.00434376
0.00373668
0.0026342
0.00334654
0.00395961
0.00426791
0.00457929
0.00439888
0.00445726
0.00451366
0.00424603
0.00377429
0.00394685
0.00384459
0.00369795
0.00395666
0.00421703
0.00428658
0.00420261
0.00408387
0.00326681
0.00309202
0.00173892
0.00252095
0.00280026
0.0034271
0.00332771
0.0032669
0.00349711
0.00354987
0.00308944
0.00291724
0.00296764
0.00269088
0.00276208
0.00328351
0.00339017
0.00316671
0.00328536
0.00288825
0.00251899
0.00238549
0.00145714
0.00185584
0.00215344
0.00245617
0.00261005
0.00238336
0.00251315
0.00213846
0.0020042
0.0020467
0.00189241
0.00185106
0.00226551
0.0021104
0.00216201
0.00218611
0.00206377
0.00210237
0.00173539
0.001604
0.000912406
0.00103923
0.00144891
0.00128058
0.00132838
0.0015793
0.00145567
0.0016262
0.00146372
0.00101917
0.000967626
0.00131334
0.00121817
0.00135049
0.00144406
0.00118973
0.00162237
0.00114695
0.000871527
0.000903577
0.000345787
0.000401517
0.000377533
0.000286869
0.000342193
0.000365134
0.000418868
0.000731237
0.000424091
0.000669157
0.000343673
0.000652268
0.000575505
0.000525514
0.000538753
0.000666895
0.000838034
0.000278555
0.000339628
0.000301125
0.00648373
0.00778791
0.00878727
0.00946326
0.00963459
0.0101898
0.0098534
0.00954331
0.0093062
0.00880882
0.00874973
0.00871014
0.00877307
0.0086609
0.0089568
0.0088076
0.00863596
0.00822867
0.00717098
0.00633577
0.00552073
0.00631734
0.00723682
0.00775361
0.00830332
0.00827429
0.00820087
0.00784895
0.00760296
0.00708429
0.00725481
0.00713439
0.00757084
0.00752372
0.00763941
0.00753744
0.00751166
0.00705229
0.00625841
0.00533216
0.00396885
0.00521159
0.00595705
0.00669222
0.00669187
0.00684894