/*--------------------------------*- C++ -*----------------------------------*\
| =========                 |                                                 |
| \\      /  F ield         | OpenFOAM: The Open Source CFD Toolbox           |
|  \\    /   O peration     | Version:  2212                                  |
|   \\  /    A nd           | Website:  www.openfoam.com                      |
|    \\/     M anipulation  |                                                 |
\*---------------------------------------------------------------------------*/
FoamFile
{
    version     2.0;
    format      ascii;
    arch        "LSB;label=32;scalar=64";
    class       volScalarField;
    location    "0";
    object      T;
}
// * * * * * * * * * * * * * * * * * * * * * * * * * * * * * * * * * * * * * //

dimensions      [0 0 0 1 0 0 0];

internalField   nonuniform List<scalar> 
3200
(
326.351
326.722
327.226
327.755
327.88
328.252
328.327
328.345
328.351
328.537
328.302
328.261
328.122
327.902
327.443
327.283
326.815
325.979
325.512
325.134
323.166
323.511
323.882
324.409
324.49
324.817
324.899
324.908
324.907
325.122
324.924
324.866
324.74
324.514
324.135
324.016
323.581
322.893
322.403
322.076
319.831
320.146
320.434
320.898
320.945
321.214
321.322
321.341
321.318
321.525
321.355
321.291
321.184
320.985
320.678
320.539
320.177
319.658
319.116
318.902
316.396
316.637
316.866
317.267
317.32
317.488
317.575
317.651
317.575
317.76
317.608
317.562
317.494
317.345
317.035
317.001
316.693
316.276
315.769
315.639
312.861
313.043
313.224
313.538
313.619
313.696
313.78
313.824
313.762
313.893
313.801
313.751
313.701
313.561
313.293
313.319
313.115
312.817
312.361
312.28
309.24
309.36
309.551
309.695
309.808
309.85
309.919
309.932
309.907
309.952
309.867
309.906
309.818
309.765
309.526
309.582
309.405
309.226
308.867
308.826
305.614
305.623
305.75
305.824
305.884
305.928
305.96
306.007
305.953
306.01
305.933
305.96
305.905
305.871
305.751
305.775
305.669
305.565
305.303
305.28
301.897
301.882
301.923
301.952
301.989
301.996
301.997
302.02
302.006
302.021
301.98
302.009
301.977
301.986
301.93
301.963
301.89
301.881
301.767
301.793
327.196
327.661
327.896
328.443
328.687
329.19
329.225
329.377
329.531
329.467
329.34
329.193
329.135
328.979
328.369
328.243
327.598
327.129
326.615
326.204
323.846
324.246
324.444
324.967
325.129
325.639
325.628
325.741
325.902
325.885
325.717
325.57
325.529
325.483
324.877
324.817
324.277
323.812
323.419
323.013
320.383
320.752
320.859
321.345
321.445
321.955
321.897
321.981
322.118
322.145
321.912
321.799
321.795
321.798
321.276
321.176
320.76
320.384
320.01
319.708
316.831
317.137
317.197
317.612
317.632
318.134
318.058
318.087
318.244
318.253
318.009
317.951
317.996
317.954
317.589
317.459
317.12
316.806
316.496
316.252
313.162
313.46
313.427
313.797
313.817
314.237
314.108
314.161
314.279
314.306
314.094
314.05
314.116
314.01
313.792
313.679
313.412
313.159
312.931
312.734
309.439
309.682
309.642
309.93
309.932
310.21
310.157
310.185
310.236
310.27
310.115
310.074
310.165
310.025
309.935
309.821
309.652
309.485
309.28
309.159
305.692
305.831
305.812
306
305.989
306.147
306.11
306.144
306.151
306.151
306.064
306.062
306.104
306.001
306.009
305.929
305.832
305.71
305.587
305.529
301.906
301.938
301.949
302.025
302.001
302.05
302.049
302.066
302.059
302.043
302.017
302.035
302.065
302.021
302.017
301.989
301.963
301.934
301.894
301.858
328.172
328.644
329.209
329.6
330.046
330.349
330.653
330.76
330.635
330.621
330.733
330.534
330.358
330.166
329.666
329.239
328.874
328.349
327.755
327.343
324.681
325.034
325.565
325.95
326.309
326.616
326.901
326.977
326.891
326.822
326.952
326.771
326.638
326.482
326.044
325.631
325.316
324.897
324.363
324.016
321.016
321.358
321.815
322.19
322.426
322.719
322.989
323.017
322.956
322.9
323.025
322.884
322.738
322.607
322.249
321.901
321.628
321.271
320.808
320.514
317.301
317.618
317.979
318.295
318.484
318.738
319.001
318.98
318.882
318.858
318.946
318.889
318.744
318.609
318.336
318.077
317.84
317.505
317.148
316.866
313.523
313.797
314.047
314.296
314.457
314.671
314.918
314.855
314.705
314.703
314.789
314.784
314.695
314.529
314.353
314.125
313.976
313.678
313.418
313.19
309.705
309.927
310.034
310.224
310.401
310.539
310.751
310.662
310.584
310.535
310.609
310.608
310.565
310.396
310.262
310.096
309.999
309.794
309.629
309.489
305.836
305.984
306.012
306.165
306.275
306.352
306.482
306.436
306.405
306.334
306.384
306.351
306.365
306.251
306.173
306.049
305.988
305.88
305.812
305.75
301.956
302.026
302.02
302.042
302.102
302.122
302.164
302.167
302.152
302.134
302.159
302.132
302.138
302.105
302.078
302.011
301.998
301.97
301.976
301.94
329.49
329.87
330.438
330.975
331.263
331.691
331.959
332.081
332.076
332.047
332.166
332.022
331.742
331.458
331.132
330.565
330.135
329.549
329.076
328.423
325.813
326.13
326.67
327.124
327.363
327.748
328.023
328.108
328.111
328.061
328.187
328.056
327.816
327.545
327.273
326.788
326.385
325.903
325.502
324.943
322.008
322.28
322.76
323.088
323.347
323.7
323.95
324.007
323.977
323.953
324.049
323.944
323.702
323.518
323.248
322.877
322.511
322.106
321.8
321.352
318.134
318.349
318.758
318.975
319.235
319.487
319.763
319.794
319.75
319.74
319.802
319.743
319.5
319.35
319.193
318.871
318.495
318.233
317.975
317.624
314.196
314.362
314.677
314.812
315.105
315.238
315.487
315.46
315.438
315.407
315.48
315.418
315.223
315.108
315.018
314.827
314.47
314.259
314.061
313.786
310.196
310.29
310.524
310.618
310.849
310.934
311.102
311.095
311.092
311.042
311.105
311.079
310.906
310.845
310.81
310.674
310.387
310.218
310.107
309.868
306.162
306.229
306.345
306.347
306.531
306.59
306.704
306.729
306.702
306.638
306.717
306.659
306.603
306.49
306.543
306.437
306.243
306.132
306.106
305.947
302.073
302.09
302.123
302.113
302.189
302.234
302.258
302.246
302.28
302.216
302.259
302.232
302.237
302.178
302.194
302.173
302.092
302.069
302.062
301.996
330.634
331.185
331.756
332.305
332.779
333.21
333.306
333.504
333.577
333.736
333.72
333.492
333.206
332.799
332.461
332.073
331.381
330.873
330.368
329.856
326.781
327.295
327.787
328.315
328.695
329.085
329.16
329.311
329.394
329.517
329.51
329.329
329.086
328.732
328.43
328.105
327.488
327.03
326.564
326.221
322.869
323.279
323.691
324.173
324.448
324.813
324.893
324.967
325.024
325.177
325.161
325.057
324.793
324.512
324.29
324.02
323.431
323.028
322.672
322.419
318.877
319.167
319.487
319.874
320.101
320.456
320.528
320.546
320.602
320.713
320.711
320.664
320.363
320.169
320.013
319.803
319.308
318.929
318.628
318.475
314.775
314.976
315.246
315.49
315.686
316.003
316.068
316.065
316.109
316.194
316.19
316.149
315.849
315.745
315.637
315.507
315.058
314.769
314.533
314.431
310.612
310.733
310.932
311.112
311.211
311.501
311.538
311.478
311.56
311.636
311.606
311.585
311.341
311.28
311.218
311.158
310.769
310.559
310.428
310.336
306.373
306.469
306.583
306.733
306.779
306.943
306.971
306.909
306.998
307.009
306.959
306.964
306.812
306.811
306.736
306.721
306.454
306.362
306.317
306.239
302.135
302.168
302.216
302.274
302.27
302.326
302.349
302.323
302.354
302.382
302.321
302.336
302.288
302.289
302.241
302.244
302.168
302.13
302.121
302.096
331.663
332.402
332.942
333.611
334.036
334.461
334.788
334.932
335.069
335.349
335.047
334.815
334.407
334.239
333.721
333.353
332.879
332.361
331.682
331.27
327.696
328.337
328.842
329.39
329.731
330.181
330.414
330.584
330.703
330.981
330.682
330.52
330.145
330.007
329.557
329.19
328.731
328.302
327.761
327.403
323.603
324.146
324.596
325.055
325.312
325.714
325.954
326.085
326.172
326.418
326.19
326.078
325.756
325.588
325.257
324.936
324.456
324.124
323.719
323.408
319.463
319.858
320.272
320.601
320.823
321.177
321.393
321.461
321.498
321.789
321.587
321.5
321.222
321.063
320.807
320.516
320.118
319.815
319.571
319.35
315.245
315.517
315.832
316.071
316.239
316.522
316.741
316.805
316.804
317.023
316.906
316.8
316.581
316.442
316.259
316.007
315.698
315.454
315.321
315.171
310.955
311.097
311.39
311.518
311.617
311.847
312.031
312.07
312.045
312.18
312.098
312.055
311.913
311.741
311.646
311.457
311.222
311.078
311.023
310.906
306.628
306.63
306.854
306.911
306.998
307.135
307.247
307.266
307.259
307.36
307.307
307.254
307.147
307.082
307.005
306.88
306.75
306.701
306.602
306.595
302.228
302.209
302.296
302.319
302.369
302.387
302.426
302.436
302.448
302.475
302.442
302.432
302.376
302.379
302.361
302.303
302.267
302.271
302.229
302.197
332.763
333.514
334.191
334.883
335.214
335.6
336.137
336.275
336.471
336.73
336.494
336.32
336.091
335.802
335.157
334.696
334.252
333.757
333.061
332.658
328.658
329.323
329.87
330.508
330.794
331.133
331.644
331.703
331.92
332.166
331.973
331.783
331.596
331.381
330.783
330.393
329.952
329.59
328.991
328.624
324.501
325.009
325.438
325.985
326.208
326.531
327.042
327.034
327.23
327.422
327.268
327.147
326.945
326.79
326.265
325.937
325.534
325.229
324.739
324.422
320.168
320.601
320.966
321.357
321.56
321.849
322.285
322.208
322.416
322.579
322.474
322.363
322.153
322.086
321.662
321.372
320.973
320.733
320.377
320.105
315.765
316.136
316.4
316.652
316.852
317.038
317.466
317.33
317.513
317.64
317.549
317.497
317.296
317.269
316.968
316.716
316.395
316.228
315.963
315.74
311.327
311.573
311.746
311.869
312.081
312.218
312.554
312.45
312.552
312.6
312.591
312.545
312.395
312.372
312.172
311.962
311.76
311.648
311.506
311.306
306.808
306.972
307.079
307.111
307.295
307.355
307.566
307.541
307.549
307.578
307.589
307.544
307.47
307.483
307.339
307.165
307.054
307.051
306.943
306.822
302.299
302.338
302.374
302.384
302.479
302.477
302.544
302.522
302.541
302.53
302.574
302.517
302.499
302.518
302.461
302.419
302.353
302.372
302.32
302.283
334.063
334.503
335.538
335.844
336.538
337.105
337.53
337.593
337.984
338.033
337.741
337.833
337.483
337.181
336.683
335.927
335.448
335.023
334.439
333.947
329.811
330.175
331.054
331.328
331.986
332.458
332.85
332.924
333.22
333.319
333.046
333.123
332.822
332.489
332.114
331.402
330.984
330.613
330.148
329.711
325.442
325.736
326.431
326.689
327.306
327.689
328.038
328.091
328.327
328.44
328.182
328.236
328.016
327.662
327.39
326.742
326.377
326.112
325.718
325.393
320.956
321.207
321.761
321.966
322.487
322.815
323.107
323.165
323.328
323.407
323.226
323.248
323.082
322.73
322.565
322.016
321.677
321.475
321.197
320.953
316.389
316.606
317.023
317.188
317.568
317.867
318.078
318.112
318.259
318.286
318.19
318.148
317.979
317.749
317.649
317.244
316.943
316.806
316.583
316.398
311.748
311.876
312.218
312.337
312.595
312.85
312.968
312.99
313.118
313.113
313.024
312.986
312.877
312.707
312.653
312.394
312.147
312.077
311.892
311.774
307.032
307.163
307.357
307.454
307.549
307.728
307.829
307.818
307.88
307.878
307.818
307.799
307.752
307.677
307.63
307.458
307.3
307.277
307.171
307.106
302.343
302.409
302.469
302.499
302.532
302.596
302.604
302.612
302.646
302.635
302.616
302.622
302.612
302.567
302.552
302.502
302.442
302.451
302.412
302.401
335.416
335.793
336.686
337.132
337.887
338.578
338.909
339.067
339.365
339.344
339.22
338.917
338.66
338.42
338.11
337.386
336.975
336.373
335.732
335.046
330.981
331.289
332.048
332.449
333.132
333.754
334.091
334.189
334.463
334.468
334.3
334.077
333.809
333.606
333.308
332.734
332.352
331.837
331.294
330.664
326.411
326.704
327.34
327.673
328.24
328.775
329.105
329.178
329.411
329.41
329.26
329.035
328.863
328.618
328.381
327.922
327.551
327.155
326.749
326.15
321.772
321.979
322.569
322.78
323.248
323.691
323.98
324.007
324.255
324.224
324.084
323.873
323.759
323.533
323.36
322.991
322.67
322.323
322.092
321.504
317.016
317.204
317.658
317.791
318.198
318.522
318.734
318.757
318.985
318.959
318.809
318.673
318.562
318.377
318.228
317.968
317.696
317.458
317.278
316.808
312.192
312.324
312.656
312.75
313
313.28
313.424
313.431
313.635
313.611
313.476
313.388
313.272
313.198
313.045
312.887
312.68
312.499
312.415
312.056
307.334
307.407
307.62
307.662
307.782
308.018
308.089
308.082
308.204
308.17
308.124
308.08
307.997
307.952
307.816
307.756
307.659
307.51
307.497
307.276
302.455
302.482
302.569
302.576
302.611
302.705
302.731
302.693
302.749
302.749
302.734
302.729
302.672
302.667
302.619
302.593
302.566
302.506
302.52
302.444
336.481
337.008
337.92
338.404
339.182
339.609
340.098
340.347
340.565
340.545
340.373
340.195
339.878
339.717
339.324
338.588
338.046
337.555
336.974
336.276
331.895
332.346
333.149
333.612
334.243
334.7
335.081
335.298
335.516
335.455
335.304
335.179
334.873
334.74
334.411
333.816
333.263
332.847
332.341
331.765
327.207
327.544
328.247
328.652
329.22
329.629
329.919
330.129
330.283
330.269
330.098
330.007
329.743
329.568
329.352
328.837
328.349
328.036
327.575
327.096
322.424
322.649
323.243
323.562
324.063
324.397
324.616
324.803
324.957
324.945
324.775
324.702
324.487
324.304
324.165
323.736
323.34
323.07
322.712
322.287
317.547
317.678
318.17
318.379
318.84
319.074
319.215
319.412
319.546
319.52
319.342
319.278
319.171
318.935
318.871
318.566
318.193
318.044
317.769
317.374
312.571
312.682
312.993
313.173
313.507
313.624
313.805
313.949
314.016
314.011
313.838
313.83
313.736
313.545
313.55
313.294
313.021
312.942
312.716
312.429
307.55
307.655
307.808
307.965
308.126
308.189
308.321
308.4
308.449
308.435
308.341
308.355
308.226
308.129
308.183
307.983
307.823
307.775
307.653
307.455
302.529
302.57
302.619
302.68
302.722
302.747
302.811
302.802
302.837
302.827
302.782
302.793
302.746
302.717
302.755
302.682
302.617
302.603
302.57
302.515
337.439
338.353
338.924
339.665
340.255
340.584
341.127
341.433
341.699
341.764
341.576
341.543
341.305
341.025
340.503
339.888
339.167
338.684
337.895
337.254
332.774
333.54
333.997
334.633
335.204
335.491
335.958
336.236
336.473
336.546
336.358
336.349
336.129
335.87
335.422
334.859
334.272
333.865
333.173
332.604
327.938
328.583
328.939
329.468
330.021
330.266
330.677
330.907
331.071
331.113
331.02
330.985
330.757
330.579
330.209
329.695
329.196
328.871
328.3
327.81
323.03
323.53
323.752
324.259
324.718
324.924
325.277
325.451
325.567
325.573
325.551
325.497
325.295
325.168
324.841
324.407
324.012
323.773
323.26
322.887
318.019
318.397
318.479
318.955
319.358
319.502
319.763
319.902
319.995
319.973
319.952
319.918
319.73
319.688
319.361
319.035
318.773
318.616
318.187
317.865
312.939
313.165
313.194
313.6
313.915
313.95
314.15
314.255
314.319
314.332
314.284
314.268
314.134
314.084
313.839
313.635
313.419
313.37
313.038
312.781
307.789
307.934
307.934
308.204
308.4
308.376
308.55
308.569
308.614
308.599
308.584
308.577
308.489
308.469
308.325
308.216
308.057
308.041
307.867
307.685
302.616
302.69
302.651
302.762
302.815
302.82
302.888
302.87
302.901
302.865
302.863
302.871
302.856
302.833
302.805
302.755
302.706
302.696
302.641
302.59
338.399
339.335
339.856
340.523
341.204
341.893
342.351
342.663
342.885
342.881
342.88
342.707
342.38
342.223
341.709
340.973
340.682
339.796
338.961
338.433
333.576
334.337
334.809
335.417
336.003
336.585
337.023
337.366
337.508
337.475
337.461
337.357
337.054
336.984
336.489
335.837
335.57
334.826
334.057
333.657
328.632
329.242
329.656
330.164
330.645
331.164
331.565
331.82
331.952
331.93
331.927
331.816
331.591
331.53
331.103
330.557
330.295
329.706
329
328.746
323.572
324.05
324.338
324.838
325.196
325.655
325.972
326.202
326.265
326.245
326.255
326.178
326.041
325.953
325.641
325.127
324.895
324.465
323.87
323.677
318.435
318.787
318.968
319.393
319.658
320.041
320.339
320.488
320.504
320.502
320.474
320.431
320.331
320.251
320.032
319.68
319.404
319.122
318.649
318.506
313.247
313.459
313.557
313.911
314.133
314.337
314.605
314.685
314.706
314.672
314.648
314.625
314.546
314.518
314.346
314.16
313.882
313.711
313.34
313.266
307.98
308.116
308.131
308.341
308.525
308.606
308.792
308.819
308.852
308.849
308.835
308.825
308.763
308.768
308.616
308.567
308.352
308.234
308.009
307.984
302.686
302.716
302.716
302.776
302.872
302.882
302.958
302.928
302.98
302.971
302.968
302.965
302.958
302.957
302.902
302.897
302.795
302.76
302.69
302.675
339.492
340.159
340.813
341.696
342.264
342.899
343.418
343.53
343.84
343.938
344.028
343.868
343.529
343.307
342.726
342.217
341.712
341.007
339.922
339.181
334.543
335.086
335.687
336.418
336.918
337.498
337.957
338.06
338.384
338.415
338.533
338.339
338.061
337.898
337.361
336.895
336.48
335.86
334.926
334.322
329.451
329.894
330.416
330.977
331.412
331.931
332.319
332.506
332.749
332.746
332.864
332.659
332.434
332.323
331.879
331.441
331.091
330.524
329.779
329.299
324.247
324.609
325.017
325.458
325.827
326.277
326.542
326.796
327.004
326.993
327.051
326.862
326.687
326.618
326.269
325.882
325.573
325.112
324.531
324.131
318.949
319.223
319.558
319.935
320.175
320.554
320.728
320.958
321.167
321.159
321.16
320.986
320.901
320.812
320.554
320.22
320.005
319.639
319.148
318.857
313.558
313.773
314.027
314.323
314.448
314.743
314.864
315.002
315.24
315.191
315.185
315.073
315.03
314.9
314.735
314.523
314.376
314.076
313.699
313.499
308.14
308.298
308.457
308.609
308.686
308.872
308.943
309.015
309.187
309.13
309.129
309.066
309.09
308.967
308.829
308.773
308.666
308.47
308.207
308.106
302.725
302.772
302.83
302.885
302.903
302.959
303.003
303.033
303.111
303.073
303.07
303.042
303.07
303.002
302.934
302.934
302.905
302.836
302.752
302.732
340.193
341.107
341.756
342.762
343.227
343.93
344.546
344.615
344.81
345.114
344.979
344.76
344.559
344.258
343.841
343.27
342.669
341.793
340.686
339.992
335.131
335.941
336.498
337.359
337.749
338.394
338.952
339.034
339.198
339.459
339.33
339.109
338.986
338.663
338.316
337.864
337.309
336.539
335.569
334.929
329.964
330.656
331.054
331.79
332.157
332.696
333.176
333.258
333.43
333.646
333.502
333.33
333.244
332.978
332.65
332.255
331.802
331.144
330.276
329.792
324.646
325.249
325.53
326.142
326.472
326.864
327.324
327.376
327.575
327.702
327.552
327.471
327.362
327.153
326.859
326.521
326.144
325.638
324.927
324.509
319.258
319.757
319.963
320.397
320.692
320.975
321.358
321.372
321.589
321.678
321.506
321.477
321.4
321.22
321.014
320.694
320.395
320.047
319.501
319.132
313.81
314.193
314.29
314.626
314.841
315.03
315.31
315.315
315.526
315.557
315.448
315.432
315.365
315.224
315.055
314.86
314.584
314.381
314.002
313.716
308.307
308.546
308.577
308.797
308.944
309.05
309.196
309.185
309.365
309.352
309.297
309.273
309.271
309.179
309.036
308.983
308.816
308.65
308.45
308.292
302.777
302.87
302.878
302.937
302.995
303.044
303.083
303.084
303.128
303.144
303.13
303.109
303.137
303.093
303.025
303.034
302.956
302.897
302.82
302.79
340.928
341.77
342.796
343.577
344.253
344.617
345.342
345.834
345.914
345.841
346.001
345.73
345.577
345.394
344.742
344.321
343.544
342.95
341.796
341.069
335.803
336.518
337.365
338.08
338.625
338.957
339.631
340.02
340.177
340.112
340.238
339.969
339.841
339.711
339.14
338.71
338.111
337.57
336.543
335.946
330.521
331.106
331.841
332.426
332.888
333.161
333.791
334.081
334.261
334.206
334.259
334.071
334.006
333.836
333.366
332.96
332.433
332.006
331.169
330.625
325.131
325.532
326.179
326.666
327.047
327.27
327.858
328.022
328.201
328.176
328.19
328.055
328.033
327.876
327.449
327.079
326.702
326.35
325.67
325.152
319.646
319.91
320.42
320.863
321.096
321.275
321.745
321.853
322.049
322.04
322.035
321.934
321.969
321.788
321.457
321.121
320.864
320.591
320.065
319.678
314.054
314.241
314.628
314.983
315.112
315.263
315.598
315.629
315.825
315.799
315.81
315.726
315.81
315.624
315.396
315.124
314.992
314.788
314.408
314.154
308.449
308.589
308.801
309.007
309.1
309.227
309.417
309.382
309.531
309.503
309.511
309.465
309.518
309.407
309.257
309.089
309.061
308.935
308.694
308.532
302.839
302.866
302.973
303.029
303.063
303.108
303.166
303.155
303.193
303.202
303.188
303.178
303.23
303.148
303.109
303.036
303.068
302.999
302.918
302.865
341.567
342.443
343.365
344.23
344.885
345.544
346.02
346.56
346.71
346.784
347.021
346.684
346.345
346.133
345.631
345.209
344.267
343.468
342.792
341.94
336.342
337.095
337.936
338.636
339.195
339.761
340.202
340.675
340.848
340.861
341.069
340.824
340.494
340.364
339.914
339.54
338.691
338.03
337.357
336.683
330.977
331.602
332.316
332.873
333.32
333.867
334.248
334.619
334.787
334.796
334.994
334.829
334.5
334.42
334
333.651
332.943
332.415
331.858
331.238
325.528
326.011
326.596
327.059
327.413
327.83
328.185
328.454
328.609
328.639
328.754
328.705
328.364
328.321
327.978
327.646
327.066
326.679
326.266
325.706
319.99
320.318
320.755
321.157
321.444
321.684
322.022
322.182
322.336
322.406
322.437
322.433
322.142
322.112
321.874
321.57
321.102
320.861
320.553
320.11
314.376
314.523
314.895
315.196
315.407
315.503
315.789
315.898
315.945
316.056
316.034
316.037
315.861
315.846
315.672
315.449
315.114
314.938
314.736
314.432
308.632
308.737
308.976
309.161
309.305
309.306
309.508
309.561
309.562
309.65
309.638
309.672
309.553
309.514
309.422
309.312
309.079
308.993
308.836
308.688
302.893
302.922
303.038
303.08
303.114
303.11
303.198
303.205
303.206
303.23
303.244
303.242
303.192
303.168
303.154
303.122
303.052
303.013
302.972
302.916
342.127
343.02
344.022
344.879
345.617
346.35
346.823
347.208
347.545
347.567
347.611
347.635
347.169
346.945
346.432
345.834
345.037
344.221
343.245
342.48
336.851
337.56
338.485
339.16
339.887
340.481
340.919
341.229
341.535
341.565
341.563
341.623
341.221
341.016
340.552
340.059
339.357
338.63
337.806
337.154
331.351
331.946
332.844
333.358
333.985
334.491
334.835
335.084
335.351
335.436
335.397
335.474
335.116
334.929
334.526
334.115
333.529
332.912
332.186
331.671
325.783
326.253
327.044
327.379
327.971
328.346
328.721
328.825
329.112
329.169
329.101
329.218
328.88
328.743
328.369
328.058
327.564
327.067
326.469
326.082
320.136
320.574
321.141
321.349
321.876
322.098
322.482
322.504
322.774
322.761
322.707
322.82
322.556
322.447
322.171
321.919
321.535
321.101
320.672
320.4
314.44
314.803
315.152
315.297
315.719
315.823
316.165
316.117
316.351
316.319
316.27
316.336
316.206
316.075
315.896
315.743
315.471
315.072
314.847
314.643
308.682
308.92
309.135
309.215
309.47
309.499
309.763
309.689
309.86
309.822
309.786
309.82
309.772
309.639
309.572
309.471
309.309
309.05
308.9
308.849
302.932
302.986
303.065
303.104
303.174
303.174
303.276
303.256
303.337
303.282
303.264
303.28
303.286
303.234
303.211
303.167
303.115
303.036
302.96
302.977
342.633
343.534
344.625
345.651
346.292
346.919
347.608
347.813
348.19
348.461
348.245
347.971
347.956
347.521
347.216
346.423
345.756
344.79
343.923
342.993
337.29
338.015
338.98
339.887
340.464
340.989
341.592
341.788
342.136
342.322
342.163
341.916
341.908
341.503
341.232
340.536
339.987
339.133
338.389
337.576
331.761
332.414
333.249
333.939
334.47
334.939
335.435
335.564
335.907
336.04
335.916
335.765
335.691
335.35
335.116
334.526
334.03
333.384
332.679
331.986
326.102
326.708
327.373
327.891
328.345
328.759
329.136
329.211
329.512
329.642
329.526
329.446
329.299
329.098
328.891
328.384
328.009
327.474
326.839
326.32
320.379
320.867
321.4
321.781
322.133
322.48
322.756
322.767
323.019
323.129
323.047
323.013
322.869
322.764
322.574
322.152
321.897
321.453
320.916
320.544
314.593
314.957
315.335
315.631
315.865
316.116
316.323
316.284
316.524
316.59
316.488
316.466
316.378
316.321
316.177
315.891
315.686
315.384
314.952
314.729
308.783
309.005
309.262
309.417
309.556
309.683
309.829
309.779
309.967
309.987
309.909
309.918
309.842
309.786
309.746
309.566
309.426
309.279
309.016
308.874
302.942
303.001
303.137
303.171
303.205
303.235
303.31
303.266
303.335
303.346
303.322
303.334
303.325
303.281
303.264
303.23
303.169
303.105
303.013
302.97
342.934
343.795
345.069
345.981
346.769
347.117
348.021
348.221
348.55
348.822
348.665
348.696
348.178
347.891
347.454
346.878
346.292
345.238
344.538
343.459
337.504
338.246
339.363
340.21
340.803
341.151
341.948
342.113
342.43
342.683
342.444
342.536
342.071
341.839
341.476
340.954
340.449
339.508
338.932
338.003
331.963
332.588
333.547
334.279
334.721
335.044
335.672
335.834
336.154
336.344
336.139
336.187
335.794
335.653
335.401
334.903
334.434
333.688
333.164
332.381
326.301
326.874
327.594
328.232
328.558
328.824
329.344
329.441
329.745
329.916
329.71
329.696
329.42
329.332
329.148
328.742
328.365
327.72
327.31
326.647
320.546
321.004
321.572
322.02
322.313
322.506
322.914
322.925
323.206
323.369
323.178
323.161
322.944
322.888
322.743
322.49
322.148
321.624
321.305
320.811
314.724
315.073
315.48
315.77
315.966
316.082
316.42
316.401
316.606
316.729
316.581
316.561
316.447
316.323
316.288
316.143
315.888
315.474
315.257
314.9
308.864
309.081
309.314
309.469
309.599
309.676
309.896
309.85
309.996
310.049
309.982
309.971
309.875
309.786
309.807
309.755
309.573
309.288
309.192
308.971
302.97
303.036
303.112
303.177
303.225
303.256
303.325
303.294
303.358
303.379
303.344
303.363
303.298
303.265
303.303
303.282
303.213
303.105
303.097
303.002
343.432
344.253
345.197
346.197
346.677
347.585
348.244
348.723
348.912
349.073
348.863
348.856
348.578
348.069
347.984
347.322
346.614
345.394
344.746
343.682
337.947
338.614
339.436
340.331
340.747
341.494
342.146
342.552
342.693
342.832
342.625
342.667
342.418
341.996
341.907
341.307
340.694
339.631
339.099
338.17
332.316
332.833
333.554
334.327
334.738
335.323
335.878
336.266
336.341
336.475
336.244
336.302
336.154
335.796
335.685
335.153
334.6
333.77
333.328
332.525
326.557
327.015
327.61
328.178
328.584
328.977
329.531
329.864
329.901
330.05
329.806
329.814
329.708
329.438
329.389
328.883
328.393
327.796
327.429
326.749
320.758
321.087
321.535
321.985
322.38
322.609
323.043
323.293
323.328
323.518
323.267
323.239
323.194
322.993
323
322.55
322.106
321.688
321.442
320.847
314.897
315.08
315.436
315.725
316.033
316.202
316.489
316.662
316.702
316.877
316.672
316.636
316.622
316.476
316.482
316.163
315.817
315.55
315.34
314.939
308.973
309.044
309.296
309.429
309.691
309.749
309.932
310.002
310.037
310.163
310.005
310.011
310.01
309.907
309.919
309.732
309.5
309.406
309.216
309.015
303.015
303.026
303.106
303.16
303.271
303.251
303.333
303.341
303.359
303.424
303.347
303.349
303.37
303.333
303.318
303.274
303.168
303.148
303.094
303.041
)
;

boundaryField
{
    hotSide
    {
        type            fixedGradient;
        gradient        nonuniform List<scalar> 
400
(
242.457
255.319
268.147
280.884
293.472
305.853
317.966
329.754
341.156
352.115
362.576
372.483
381.786
390.436
398.386
405.596
412.028
417.649
422.429
426.347
246.853
260.115
273.349
286.496
299.496
312.289
324.812
337.004
348.806
360.157
370.998
381.275
390.933
399.922
408.194
415.706
422.419
428.298
433.315
437.443
250.589
264.221
277.83
291.356
304.738
317.912
330.815
343.385
355.559
367.275
378.473
389.096
399.087
408.395
416.97
424.768
431.748
437.874
443.116
447.446
253.67
267.637
281.587
295.459
309.188
322.711
335.963
348.879
361.395
373.448
384.975
395.917
406.217
415.821
424.679
432.743
439.973
446.331
451.785
456.307
256.103
270.369
284.624
298.805
312.846
326.683
340.249
353.477
366.302
378.659
390.485
401.717
412.299
422.173
431.29
439.599
447.06
453.632
459.282
463.984
257.901
272.429
286.95
301.401
315.717
329.829
343.671
357.175
370.274
382.901
394.992
406.483
417.316
427.433
436.781
445.312
452.98
459.747
465.578
470.444
259.083
273.83
288.577
303.259
317.808
332.156
346.235
359.976
373.31
386.17
398.49
410.207
421.258
431.587
441.139
449.863
457.715
464.655
470.646
475.66
259.665
274.591
289.522
304.391
319.131
333.673
347.947
361.884
375.414
388.468
400.98
412.884
424.12
434.627
444.352
453.242
461.251
468.339
474.47
479.613
259.668
274.729
289.8
304.813
319.7
334.392
348.818
362.908
376.591
389.798
402.462
414.517
425.9
436.551
446.415
455.44
463.579
470.79
477.036
482.288
259.11
274.263
289.428
304.54
319.529
334.325
348.859
363.057
376.85
390.168
402.943
415.108
426.6
437.359
447.328
456.456
464.694
472
478.338
483.677
258.011
273.208
288.423
303.587
318.632
333.487
348.081
362.343
376.201
389.586
402.429
414.663
426.225
437.054
447.093
456.289
464.596
471.969
478.373
483.775
256.385
271.582
286.8
301.969
317.023
331.889
346.498
360.777
374.655
388.062
400.929
413.19
424.781
435.641
445.713
454.944
463.287
470.699
477.141
482.583
254.247
269.398
284.571
299.7
314.714
329.544
344.12
358.369
372.221
385.605
398.453
410.698
422.277
433.129
443.197
452.428
460.775
468.194
474.648
480.106
251.609
266.667
281.749
296.789
311.717
326.464
340.959
355.132
368.911
382.227
395.011
407.198
418.724
429.529
439.555
448.751
457.069
464.465
470.903
476.351
248.48
263.4
278.344
293.248
308.043
322.659
337.027
351.076
364.737
377.94
390.617
402.703
414.135
424.853
434.801
443.926
452.182
459.526
465.921
471.335
244.867
259.603
274.365
289.087
303.701
318.14
332.335
346.215
359.712
372.757
385.284
397.227
408.525
419.118
428.95
437.971
446.133
453.395
459.719
465.076
240.777
255.286
269.82
284.314
298.703
312.92
326.896
340.562
353.851
366.696
379.03
390.79
401.914
412.344
422.026
430.908
438.946
446.096
452.325
457.6
236.217
250.455
264.717
278.941
293.061
307.011
320.724
334.134
347.173
359.775
371.876
383.413
394.325
404.557
414.054
422.766
430.649
437.661
443.768
448.94
231.192
245.119
259.068
272.979
286.787
300.429
313.838
326.95
339.698
352.018
363.847
375.123
385.789
395.787
405.067
413.578
421.278
428.126
434.088
439.136
225.712
239.288
252.885
266.443
279.9
293.194
306.259
319.033
331.452
343.453
354.973
365.955
376.339
386.073
395.104
403.387
410.877
417.537
423.332
428.236
)
;
    }
    coldSide
    {
        type            mixed;
        refValue        uniform 300;
        refGradient     uniform 0;
        valueFraction   uniform 0.991591;
        source          uniform 0;
        value           nonuniform List<scalar> 
400
(
300.016
300.016
300.016
300.017
300.018
300.019
300.019
300.02
300.021
300.021
300.022
300.023
300.023
300.023
300.024
300.024
300.025
300.025
300.025
300.025
300.016
300.016
300.017
300.018
300.018
300.019
300.02
300.02
300.021
300.022
300.023
300.023
300.023
300.024
300.024
300.025
300.025
300.025
300.026
300.025
300.016
300.016
300.017
300.018