/*--------------------------------*- C++ -*----------------------------------*\
| =========                 |                                                 |
| \\      /  F ield         | OpenFOAM: The Open Source CFD Toolbox           |
|  \\    /   O peration     | Version:  2212                                  |
|   \\  /    A nd           | Website:  www.openfoam.com                      |
|    \\/     M anipulation  |                                                 |
\*---------------------------------------------------------------------------*/
FoamFile
{
    version     2.0;
    format      ascii;
    arch        "LSB;label=32;scalar=64";
    class       volScalarField;
    location    "./ITHACAoutput/true/14.4";
    object      error;
}
// * * * * * * * * * * * * * * * * * * * * * * * * * * * * * * * * * * * * * //

dimensions      [0 0 0 1 0 0 0];

internalField   nonuniform List<scalar> 
3200
(
1.16861
2.50976
3.73875
4.57075
4.97889
5.11698
5.21959
5.08863
4.86653
4.87389
4.73512
4.72599
4.81705
4.84117
4.76369
4.68487
4.35259
3.64911
2.63093
1.27463
1.17263
2.27206
3.23684
3.91225
4.30974
4.45364
4.44853
4.39322
4.30369
4.21626
4.15698
4.1478
4.12261
4.17157
4.22383
4.00705
3.86615
3.20705
2.26242
1.24173
0.971116
1.95647
2.84607
3.39932
3.64053
3.75446
3.86475
3.79701
3.67453
3.67913
3.6336
3.53887
3.50845
3.57686
3.53401
3.4766
3.22276
2.71336
1.98735
1.06265
0.960356
1.63935
2.22465
2.76205
3.07196
3.17425
3.17886
3.13889
3.05751
2.96227
2.92049
2.873
2.91208
2.86459
2.87065
2.78
2.53132
2.22497
1.49326
0.926071
0.683591
1.304
1.77179
2.15127
2.35732
2.54926
2.44709
2.42325
2.35462
2.25537
2.29079
2.20809
2.28647
2.27484
2.2694
2.18468
2.05631
1.80163
1.27407
0.744282
0.560257
0.978022
1.34195
1.53852
1.59121
1.68494
1.7295
1.74952
1.64093
1.58443
1.63829
1.63123
1.62386
1.58202
1.6691
1.52167
1.44665
1.24275
0.854075
0.536461
0.351646
0.446295
0.815221
0.908681
1.01609
1.05674
0.999438
1.07892
0.989165
0.98595
1.00191
0.990895
1.00524
1.04463
1.02036
1.00632
0.80401
0.751462
0.527898
0.264687
0.110734
0.259752
0.19703
0.285489
0.343471
0.385962
0.3278
0.350877
0.370306
0.372434
0.335697
0.329996
0.365698
0.340507
0.343735
0.289156
0.276791
0.252528
0.215123
0.118064
1.14857
2.47093
3.70054
4.46836
4.82582
4.97868
4.95072
4.87791
4.72587
4.56443
4.58087
4.50689
4.5138
4.60829
4.62656
4.52586
4.27499
3.6402
2.5607
1.37093
1.19145
2.19886
3.23469
3.91698
4.27683
4.36635
4.29772
4.17689
4.10206
4.06249
3.89863
3.95364
3.97108
3.93644
4.04187
3.9611
3.7035
3.12007
2.27921
1.24567
1.06465
1.91584
2.73931
3.32859
3.5849
3.65853
3.67336
3.64994
3.55269
3.48724
3.35104
3.3623
3.37836
3.45172
3.40075
3.4283
3.14219
2.65034
1.90491
1.07048
0.869885
1.57545
2.37031
2.77024
2.97593
3.06516
2.95662
2.98566
2.88813
2.77244
2.82303
2.77355
2.71892
2.75189
2.82719
2.75863
2.60275
2.17191
1.586
0.843227
0.704798
1.26527
1.84187
2.18142
2.31511
2.42467
2.31115
2.36449
2.24469
2.2444
2.1583
2.13076
2.15772
2.14318
2.06288
2.20305
2.07682
1.67414
1.26765
0.709586
0.538317
0.966458
1.24165
1.64058
1.68099
1.68508
1.67118
1.64303
1.70542
1.58595
1.57129
1.50999
1.50247
1.57357
1.51052
1.56216
1.43358
1.22531
0.923833
0.563853
0.311941
0.580898
0.765279
0.947601
1.01777
1.02823
1.0915
1.01626
0.948314
0.976668
0.949182
0.99255
0.88854
0.89284
0.886961
0.955942
0.879746
0.71578
0.563756
0.3736
0.099664
0.179039
0.184527
0.357714
0.314027
0.362477
0.258603
0.299499
0.310277
0.274508
0.352474
0.26982
0.273169
0.262944
0.327128
0.31349
0.305422
0.222486
0.232774
0.103288
1.13786
2.41049
3.53878
4.32244
4.70493
4.74961
4.67579
4.62402
4.30016
4.29831
4.12226
4.05896
4.14224
4.22758
4.34615
4.34726
4.09122
3.46318
2.5222
1.27914
1.01395
2.23108
3.11328
3.75853
4.06467
4.30609
4.19933
4.02396
3.89029
3.66182
3.71192
3.67004
3.66747
3.74049
3.75066
3.82596
3.4958
3.02072
2.21432
1.1558
0.93878
1.92139
2.75442
3.17796
3.47652
3.5437
3.54154
3.39681
3.28073
3.20418
3.12059
3.10146
3.15402
3.20423
3.25378
3.17617
2.98325
2.53067
1.81287
1.014
0.874023
1.51514
2.17958
2.62822
2.85618
2.94656
2.86282
2.85739
2.64656
2.6115
2.5929
2.53551
2.60117
2.57136
2.66046
2.5935
2.46414
2.04284
1.53819
0.933894
0.740119
1.25723
1.75198
2.07238
2.28439
2.22733
2.26825
2.19419
2.11865
2.04491
2.03114
1.93966
2.02415
2.06412
2.02016
2.0552
1.95346
1.61792
1.24531
0.683097
0.462029
0.919773
1.18013
1.4728
1.62597
1.59961
1.71718
1.60374
1.56551
1.46869
1.45561
1.37028
1.43752
1.52057
1.44672
1.48484
1.43075
1.1591
0.791065
0.492477
0.321729
0.555959
0.730474
0.961883
0.96137
0.943522
0.962242
0.939705
0.876268
0.847303
0.847628
0.83662
0.872502
0.789669
0.94833
0.872336
0.850943
0.673322
0.556691
0.246513
0.178902
0.125327
0.263977
0.284974
0.244467
0.312219
0.31881
0.254034
0.401139
0.31172
0.301089
0.330003
0.313064
0.262111
0.277316
0.359237
0.267838
0.249547
0.246083
0.112249
0.962935
2.27562
3.37114
4.05798
4.44372
4.43744
4.40638
4.16078
4.0389
3.7815
3.71365
3.66091
3.76631
3.97035
4.01291
4.03692
3.82358
3.23257
2.34378
1.14651
0.942192
2.00552
2.97688
3.56924
3.9052
3.96311
3.8305
3.70666
3.56104
3.40671
3.33024
3.26693
3.31121
3.37858
3.52193
3.52954
3.37618
2.89974
2.06592
1.11398
0.890542
1.77867
2.47854
3.05137
3.29974
3.43652
3.23323
3.17976
2.98938
2.85958
2.84894
2.79695
2.81263
2.92303
2.94386
3.06648
2.79415
2.43392
1.64365
0.889337
0.746414
1.44283
2.07753
2.5255
2.73136
2.76594
2.66504
2.6387
2.55225
2.38397
2.35838
2.34809
2.2806
2.37281
2.42307
2.43369
2.2837
1.98332
1.41261
0.695787
0.697395
1.13571
1.70055
1.99221
2.07327
2.1357
2.20874
2.04647
1.94057
1.78269
1.73624
1.81422
1.94021
1.84738
1.96678
1.8927
1.77404
1.52289
1.11936
0.644922
0.412983
0.890147
1.26861
1.45544
1.5086
1.52332
1.54471
1.47066
1.4222
1.27593
1.29477
1.33423
1.35249
1.40081
1.38161
1.34655
1.28646
1.11034
0.790337
0.44244
0.269306
0.551451
0.704946
0.798812
0.944972
0.906452
0.924305
0.84774
0.903329
0.850095
0.85844
0.804147
0.802961
0.835719
0.756845
0.785974
0.804683
0.736184
0.53356
0.236309
0.153345
0.144113
0.241867
0.3057
0.323793
0.270367
0.238703
0.317132
0.290565
0.26995
0.298828
0.293334
0.339927
0.205936
0.276918
0.191518
0.343645
0.220312
0.15052
0.0703278
0.852425
2.03247
3.1903
3.79078
4.0733
4.20925
4.00856
3.7881
3.62532
3.3457
3.24113
3.23459
3.39944
3.50875
3.69003
3.72909
3.55719
2.9985
2.13214
0.940551
0.758919
1.80131
2.78121
3.36363
3.61248
3.67436
3.63898
3.40127
3.22278
2.93405
2.88312
2.89666
2.87816
3.03459
3.26098
3.23498
3.09958
2.6423
1.93204
1.01642
0.868435
1.6232
2.37986
2.8875
3.06719
3.09002
3.0444
2.95384
2.73246
2.55307
2.42926
2.4846
2.52772
2.58826
2.69856
2.73021
2.62869
2.22105
1.57786
0.780549
0.640975
1.36311
1.98779
2.37278
2.59494
2.6434
2.48026
2.36647
2.22805
2.14818
2.01277
2.01458
2.10837
2.17029
2.28539
2.22579
2.16079
1.85383
1.2628
0.684262
0.55546
1.10665
1.51984
1.86053
1.97759
1.98181
2.07393
1.80918
1.70995
1.71503
1.56107
1.61383
1.65551
1.72183
1.76426
1.79089
1.69518
1.37883
1.02714
0.518931
0.48465
0.753887
1.03085
1.39637
1.49884
1.42712
1.48606
1.38613
1.26278
1.22766
1.20448
1.17351
1.11248
1.29245
1.33128
1.24911
1.2625
1.02588
0.824369
0.476451
0.348334
0.487821
0.706167
0.729637
0.860492
0.878396
0.854403
0.809961
0.69864
0.739235
0.629612
0.697679
0.71801
0.698237
0.664043
0.768453
0.722529
0.570338
0.428033
0.277823
0.0800447
0.156519
0.224997
0.266308
0.321335
0.252109
0.308359
0.300175
0.271508
0.295196
0.243717
0.233819
0.223912
0.211892
0.303409
0.254226
0.222359
0.139712
0.183863
0.0827937
0.612006
1.81839
2.83996
3.51441
3.83574
3.83672
3.68424
3.62516
3.18643
2.94843
2.81584
2.70951
2.88806
3.10293
3.34158
3.39738
3.31034
2.67266
1.84356
0.750188
0.57384
1.69544
2.51987
3.03266
3.35765
3.49619
3.27727
3.09582
2.83152
2.63295
2.47128
2.49734
2.54052
2.74854
2.95459
2.9212
2.79708
2.29469
1.69236
0.769427
0.552801
1.37334
2.25806
2.66769
2.91538
2.90684
2.80455
2.67141
2.47259
2.32463
2.11855
2.09934
2.2595
2.28952
2.48438
2.66906
2.37552
2.01607
1.41621
0.61989
0.583133
1.19327
1.76575
2.19871
2.3552
2.43738
2.33653
2.14764
2.07433
1.83859
1.77764
1.71737
1.89097
1.94617
2.0285
2.07722
1.95094
1.71676
1.11563
0.599512
0.380219
1.03983
1.40629
1.7859
1.87668
1.88348
1.88659
1.76719
1.54696
1.43771
1.4634
1.36452
1.4697
1.48349
1.62106
1.62641
1.53473
1.29156
0.940681
0.528611
0.383862
0.690901
1.00798
1.2307
1.40567
1.34486
1.32993
1.28924
1.19066
1.07603
1.02469
1.02016
1.07056
1.13441
1.13174
1.16368
1.13409
0.984123
0.645817
0.456945
0.199786
0.38809
0.633702
0.765552
0.837116
0.827081
0.804303
0.754645
0.669141
0.705859
0.644001
0.630588
0.665882
0.589998
0.72446
0.682758
0.705026
0.584305
0.374539
0.219016
0.0373797
0.180778
0.188931
0.213536
0.326614
0.226344
0.203331
0.210723
0.203618
0.290196
0.173036
0.260328
0.227243
0.266666
0.179788
0.339976
0.156341
0.121637
0.133727
0.143498
0.418547
1.5903
2.55562
3.19584
3.50132
3.54835
3.48516
3.10021
2.85823
2.54348
2.43836
2.45616
2.58693
2.83073
2.98376
3.021
2.92593
2.45776
1.61285
0.564855
0.42845
1.45492
2.26191
2.80611
3.11935
3.12547
3.00293
2.79021
2.54854
2.25111
2.19133
2.05901
2.31722
2.52317
2.64986
2.7604
2.58869
2.04663
1.40952
0.562575
0.512209
1.29469
2.0065
2.52651
2.70994
2.73096
2.65806
2.40906
2.16894
2.0136
1.98265
1.88886
2.01027
2.11413
2.28828
2.27699
2.15846
1.76086
1.18409
0.496272
0.461637
1.01533
1.64413
2.06061
2.27539
2.20447
2.19592
2.0602
1.86542
1.65386
1.53095
1.49673
1.6562
1.83991
1.92449
1.96401
1.80995
1.52617
1.02919
0.51024
0.33634
0.84634
1.30682
1.63523
1.81609
1.6503
1.70669
1.53745
1.44222
1.34465
1.24875
1.18702
1.30978
1.35279
1.4339
1.43796
1.45845
1.17714
0.764899
0.345077
0.304524
0.550947
0.899861
1.16365
1.22685
1.33319
1.22973
1.1968
1.06215
0.98919
0.888009
0.85847
0.973026
1.12433
1.0384
1.02789
1.01767
0.913058
0.519675
0.270858
0.126692
0.296472
0.620064
0.702773
0.741894
0.790638
0.744538
0.651421
0.675993
0.55533
0.520071
0.496295
0.542709
0.589935
0.719558
0.580649
0.563896
0.537266
0.263658
0.190292
0.0950456
0.16366
0.253015
0.2229
0.260103
0.282765
0.216641
0.260344
0.19593
0.248564
0.19209
0.169937
0.158954
0.140125
0.235864
0.252797
0.192451
0.18561
0.0868588
0.00591955
0.271806
1.35316
2.29405
2.9265
3.28723
3.30285
3.24283
2.90911
2.60742
2.29124
2.09763
2.13908
2.27647
2.45829
2.75333
2.78318
2.69384
2.23151
1.3652
0.444946
0.287632
1.25228
2.0652
2.64661
2.92582
2.94702
2.82448
2.59904
2.39388
2.08692
1.79163
1.89936
2.12139
2.3099
2.43053
2.51769
2.41363
2.02817
1.24597
0.422512
0.361288
1.24553
1.80091
2.30045
2.49547
2.54296
2.43092
2.2094
2.03656
1.77699
1.68232
1.60156
1.71653
1.90117
2.11281
2.18602
2.01259
1.74114
1.06366
0.370245
0.313391
0.958694
1.56629
1.94911
2.10088
2.09946
2.03221
1.88635
1.64448
1.45876
1.30238
1.38264
1.52203
1.57882
1.66571
1.7845
1.61634
1.4179
1.01253
0.372462
0.249728
0.712476
1.21538
1.44422
1.65871
1.58754
1.58178
1.49269
1.35926
1.1931
1.05467
1.00819
1.21193
1.1594
1.31138
1.30049
1.32604
1.05752
0.662354
0.270717
0.244052
0.473312
0.869512
1.07508
1.15775
1.2059
1.08698
1.11299
0.989745
0.891116
0.842553
0.797894
0.808266
0.906893
0.962893
0.969018
0.941116
0.869494
0.494924
0.155922
0.185479
0.329413
0.465814
0.629667
0.710386
0.692671
0.659066
0.620971
0.597813
0.547424
0.447717
0.456791
0.530639
0.530218
0.629461
0.56546
0.490942
0.469574
0.297484
0.126998
0.0750873
0.122872
0.119386
0.238898
0.204518
0.267894
0.211298
0.219392
0.22086
0.156433
0.197394
0.149405
0.163696
0.250566
0.151477
0.206672
0.208237
0.154832
0.0725242
0.0252961
0.196778
1.17933
2.1251
2.80042
3.13564
3.18023
3.03065
2.75462
2.42521
2.20538
1.89619
1.88048
2.16914
2.35461
2.55729
2.70206
2.52565
2.09378
1.29623
0.303493
0.242063
1.02929
1.96219
2.52073
2.78041
2.83723
2.71973
2.42985
2.12113
1.88528
1.71675
1.70893
1.84526
2.09315
2.30135
2.29301
2.20261
1.82787
1.11172
0.428385
0.211412
1.00054
1.74054
2.12995
2.34294
2.40379
2.3563
2.15765
1.89023
1.71335
1.52406
1.51628
1.70648
1.81405
1.95877
2.00226
1.87885
1.56877
1.00101
0.410364
0.267332
0.871644
1.45817
1.76161
1.95721
2.06629
1.98185
1.77283
1.59066
1.30117
1.24109
1.33243
1.40854
1.39442
1.67891
1.70938
1.51042
1.16677
0.809249
0.371887
0.249139
0.7161
1.08028
1.44074
1.56636
1.55661
1.54332
1.40097
1.19964
1.09102
0.959247
1.01544
1.06932
1.17621
1.21168
1.30917
1.2349
1.04457
0.660783
0.309753
0.214061
0.480487
0.828698
1.00079
1.12299
1.21001
1.133
1.01723
0.942086
0.793928
0.755748
0.706055
0.826954
0.879085
0.868825
0.980851
0.927505
0.697968
0.522295
0.245371
0.181975
0.242733
0.481675
0.650929
0.674086
0.716406
0.63012
0.601345
0.525127
0.538912
0.433673
0.477797
0.486536
0.444016
0.597532
0.575272
0.553237
0.433279
0.278236
0.18017
0.0680319
0.138447
0.0472474
0.149073
0.276965
0.183022
0.195894
0.194889
0.146091
0.211297
0.134794
0.205722
0.147418
0.219007
0.217709
0.238932
0.195641
0.129903
0.171942
0.0615758
0.0342845
1.08788
2.01081
2.69668
3.06044
3.11728
2.97662
2.72866
2.41953
2.03676
1.88055
1.87541
2.05645
2.3065
2.63047
2.59422
2.46107
1.96706
1.26347
0.338612
0.247431
1.10894
1.74726
2.37671
2.72434
2.7415
2.68613
2.42004
2.13928
1.97668
1.68077
1.75141
1.76718
2.01929
2.17368
2.25269
2.21701
1.72669
1.14011
0.391768
0.289398
0.972445
1.5859
2.07528
2.2198
2.35759
2.2322
2.11584
1.855
1.70915
1.57019
1.40922
1.67187
1.72996
1.98637
1.95034
1.89836
1.5332
0.960857
0.414537
0.264439
0.840126
1.37418
1.60909
1.93199
1.94406
1.93267
1.80496
1.56414
1.42509
1.24255
1.23078
1.31559
1.44016
1.65778
1.63358
1.4696
1.23507
0.810793
0.324107
0.139377
0.657409
1.03661
1.4047
1.57684
1.51377
1.53117
1.32818
1.22766
1.16193
1.02569
1.0103
1.14578
1.12367
1.29324
1.2769
1.18782
1.02921
0.679083
0.283461
0.225809
0.448183
0.69973
1.08257
1.14082
1.03443
1.02933
0.999527
0.90273
0.794171
0.749745
0.680161
0.802803
0.837621
0.904683
0.944116
0.874259
0.723709
0.489605
0.213664
0.167171
0.338959
0.52356
0.532865
0.641489
0.672602
0.674254
0.618919
0.534602
0.440178
0.391313
0.506806
0.47608
0.525285
0.536704
0.528933
0.524128
0.470784
0.332808
0.0769825
0.0169689
0.0870623
0.0970621
0.229718
0.22087
0.274072
0.156627
0.169605
0.130146
0.264951
0.1004
0.161037
0.0997615
0.195699
0.20068
0.199958
0.166572
0.0957272
0.0837709
0.0143616
0.169125
1.18986
2.0343
2.70455
3.11026
3.18914
3.02697
2.80295
2.50511
2.1726
2.08234
2.07041
2.16947
2.38483
2.66173
2.67559
2.47681
2.02376
1.33046
0.500447
0.286131
1.15959
1.83957
2.46401
2.71425
2.79021
2.72205
2.46189
2.24841
1.95966
1.83262
1.86969
1.99216
2.2172
2.24077
2.33325
2.22052
1.73059
1.18856
0.506812
0.28519
0.971098
1.65142
2.02998
2.34908
2.43142
2.35496
2.12642
1.89286
1.71654
1.56739
1.58596
1.63905
1.82905
2.00389
2.0548
1.91818
1.53236
1.12818
0.346376
0.343944
0.935761
1.43907
1.66074
1.96321
1.99957
1.91513
1.81165
1.6308
1.48503
1.35255
1.33646
1.36266
1.54561
1.65219
1.61708
1.61944
1.25908
0.808077
0.433922
0.285401
0.68574
1.11241
1.36122
1.50036
1.5755
1.53853
1.38918
1.27603
1.19044
1.06666
1.04006
1.10371
1.20627
1.31488
1.31089
1.20983
1.04144
0.680014
0.269621
0.246693
0.446818
0.814058
1.00114
1.0943
1.112
1.16987
0.994864
1.00204
0.848726
0.760402
0.761424
0.771305
0.830276
0.916463
1.00156
0.961679
0.812963
0.541144
0.292198
0.094001
0.335414
0.505389
0.541955
0.671209
0.72326
0.726828
0.633954
0.562199
0.420007
0.4385
0.469984
0.564719
0.552954
0.560936
0.573362
0.517576
0.4751
0.296753
0.182152
0.0395772
0.132287
0.154358
0.150825
0.203004
0.223202
0.20016
0.152988
0.194081
0.135785
0.210753
0.0885166
0.14182
0.155108
0.15981
0.168973
0.216925
0.143534
0.0332202
0.07478
0.355389
1.39583
2.16933
2.80056
3.18047
3.27435
3.21969
2.99293
2.7532
2.50775
2.32795
2.36546
2.40652
2.67374
2.83078
2.90671
2.71469
2.18974
1.48142
0.730662
0.474212
1.26355
1.94545
2.51926
2.84207
3.05379
2.79972
2.66201
2.49952
2.19564
2.06636
2.16302
2.19092
2.35891
2.53531
2.46662
2.3004
1.98294
1.37764
0.732446
0.497968
1.04763
1.67494
2.18659
2.46479
2.62108
2.51122
2.40216
2.13227
1.95366
1.84198
1.81515
1.86373
2.02814
2.14227
2.15604
2.07805
1.71029
1.25501
0.539238
0.455098
0.928601
1.47458
1.86574
2.05829
2.10533
2.09327
1.94819
1.83628
1.65424
1.60137
1.52563
1.61543
1.72913
1.85668
1.8387
1.68073
1.47241
1.00548
0.607294
0.374338
0.75345
1.1132
1.41995
1.65399
1.73072
1.62222
1.55319
1.38635
1.24211
1.17858
1.19334
1.22723
1.37821
1.36068
1.4688
1.33028
1.07434
0.738603
0.436528
0.281843
0.58859
0.756591
0.991965
1.16612
1.18492
1.1759
1.1216
0.962168
0.929948
0.858583
0.774931
0.895626
0.89504
1.07257
0.961432
0.927827
0.779041
0.572405
0.384327
0.212313
0.37856
0.573778
0.578729
0.708104
0.671925
0.677516
0.642966
0.67476
0.552649
0.598081
0.569506
0.522892
0.556002
0.619939
0.67702
0.556871
0.463327
0.292234
0.183252
0.0675074
0.0472241
0.146462
0.161645
0.241949
0.212079
0.325863
0.258559
0.163575
0.24654
0.0970612
0.137471
0.240702
0.213397
0.225435
0.266931
0.213171
0.200484
0.153268
0.159319
0.525989
1.52922
2.43377
3.02516
3.3342
3.5654
3.63903
3.43216
3.16397
2.9835
2.87997
2.83783
2.93116
3.13757
3.17722
3.15212
3.01892
2.59578
1.82949
1.03028
0.69935
1.49107
2.20173
2.74151
3.02524
3.19195
3.13343
2.99713
2.84549
2.67331
2.47114
2.46666
2.60136
2.67781
2.80061
2.89629
2.59359
2.32974
1.64826
0.990385
0.670846
1.29772
1.94949
2.39117
2.61616
2.74558
2.73697
2.5928
2.39906
2.29794
2.14221
2.19129
2.16805
2.39855
2.4328
2.45564
2.31677
1.88154
1.41806
0.948323
0.592901
1.09977
1.55099
1.95608
2.15906
2.25138
2.24113
2.22885
2.0345
1.92417
1.77118
1.7935
1.8092
1.96648
1.9913
1.91787
1.89522
1.60663
1.22109
0.824305
0.491938
0.901402
1.25348
1.51305
1.72678
1.73166
1.7865
1.67523
1.53662
1.49396
1.42519
1.38345
1.49722
1.49489
1.62439
1.5821
1.46361
1.19863
0.930915
0.565346
0.412372
0.713459
0.82692
1.08721
1.26353
1.30048
1.32804
1.11073
1.17143
1.05592
0.986088
1.03875
1.00493
1.15308
1.13541
1.17586
0.968006
0.845138
0.632014
0.474153
0.208553
0.426874
0.594819
0.666195
0.720817
0.814424
0.823132
0.770119
0.676303
0.636165
0.531952
0.530579
0.667082
0.619912
0.739463
0.730626
0.595514
0.511144
0.43047
0.262692
0.0568896
0.112703
0.175394
0.230637
0.223351
0.213021
0.325463
0.228844
0.122511
0.231572
0.182713
0.229925
0.192888
0.264792
0.238241
0.183222
0.151219
0.232066
0.14829
0.0925245
1.11566
1.84687
2.79153
3.49071
3.81767
4.00228
4.07074
3.94653
3.77764
3.56877
3.48144
3.50242
3.54594
3.6973
3.73454
3.67065
3.48319
3.11298
2.34989
1.4913
0.991288
1.83609
2.51254
3.10074
3.44697
3.59464
3.59036
3.40967
3.38998
3.15802
2.96121
3.05338
3.0774
3.23946
3.31154
3.23907
3.03665
2.63524
2.10167
1.42572
0.955098
1.55352
2.19422
2.66781
2.96162
3.08145
3.06132
2.89818
2.87283
2.74336
2.63473
2.64578
2.72716
2.72427
2.86136
2.79315
2.60448
2.21526
1.74422
1.28527
0.873136
1.33497
1.87522
2.13395
2.43256
2.5721
2.54702
2.42341
2.32473
2.2711
2.15848
2.12985
2.1893
2.31842
2.36331
2.27607
2.09118
1.92298
1.49071
1.05563
0.722031
1.04812
1.46751
1.74751
1.89334
2.02327
1.96475
2.02428
1.85873
1.73495
1.75927
1.6905
1.74019
1.80161
1.82006
1.80569
1.70761
1.46305
1.16397
0.833205
0.520674
0.77791
1.05506
1.2396
1.35571
1.46555
1.40092
1.40491
1.29554
1.35629
1.26833
1.2291
1.25281
1.33829
1.31492
1.34584
1.19815
1.19116
0.840482
0.607349
0.350077
0.440753
0.644065
0.698365
0.860009
0.826417
0.916098
0.863402
0.881902
0.835283
0.760787
0.735803
0.751191
0.809781
0.766793
0.795619
0.727737
0.620115
0.516816
0.386284
0.164248
0.143549
0.186292
0.275284
0.30819
0.30242
0.250205
0.295988
0.220702
0.250613
0.252335
0.302101
0.224909
0.2496
0.195416
0.238174
0.205806
0.265007
0.210132
0.0953195
1.68628
2.45244
3.26005
3.93264
4.28347
4.56192
4.67728
4.58937
4.45692
4.28562
4.22726
4.19758
4.29871
4.38414
4.36609
4.33023
4.03577
3.60049
2.95749
2.20103
1.46034
2.20782
3.0132
3.50313
3.85955
4.08636
4.04187
4.00188
3.94798
3.82966
3.76075
3.74473
3.73844
3.83303
3.82673
3.80472
3.5277
3.20373
2.64201
1.92788
1.37305
1.96108
2.56488
2.97016
3.35722
3.50931
3.59476
3.416
3.3406
3.22878
3.23519
3.21706
3.13709
3.21691
3.29184
3.26879
2.98007
2.71324
2.18273
1.65818
1.13181
1.65021
2.12047
2.49948
2.68816
2.80002
2.89433
2.87057
2.82503
2.61561
2.65884
2.6275
2.7181
2.65918
2.75978
2.70571
2.52883
2.22335
1.88504
1.4628
0.891664
1.37752
1.69307
1.98443
2.215
2.20652
2.27602
2.28464
2.12764
2.00367
2.08046
2.09473
2.06237
2.15457
2.03371
1.99817
1.98498
1.7306
1.43329
1.06485
0.685222
0.952059
1.24192
1.33745
1.54995
1.67255
1.62807
1.61664
1.54376
1.4558
1.48138
1.49481
1.4639
1.53906
1.53546
1.50406
1.43407
1.27928
1.01237
0.842043
0.36968
0.551586
0.703865
0.850515
0.952465
1.05832
0.941795
0.987219
0.900479
1.00484
0.896053
0.794123
0.839166
0.852876
0.915524
0.851379
0.804926
0.723893
0.672908
0.464781
0.112129
0.246165
0.282335
0.282716
0.303377
0.257048
0.409098
0.340218
0.322021
0.301895
0.335374
0.286816
0.371291
0.314344
0.352847
0.246379
0.268995
0.313816
0.300542
0.178237
2.23
3.08225
3.89288
4.55011
4.92598
5.24249
5.46873
5.38398
5.1885
5.1264
5.01114
5.07033
5.21131
5.20851
5.19029
5.09843
4.87826
4.3354
3.63434
2.86458
2.05031
2.82244
3.46183
4.09602
4.46016
4.59956
4.76625
4.67919
4.65389
4.6329
4.54243
4.41099
4.50525
4.54777
4.55236
4.49273
4.24044
3.82607
3.20541
2.52916
1.87145
2.47324
3.02255
3.51953
3.80223
4.00055
4.03681
4.03613
4.00076
3.95875
3.81753
3.89018
3.85677
3.87986
3.89377
3.77164
3.56822
3.24655
2.72772
2.30474
1.55961
2.07868
2.48693
2.90218
3.19934
3.29756
3.34384
3.29236
3.36279
3.19789
3.11722
3.10264
3.11151
3.2287
3.19892
3.11871
2.9271
2.69431
2.26111
1.83577
1.36523
1.62839
1.90801
2.29511
2.4709
2.56347
2.57415
2.6254
2.52578
2.53056
2.46619
2.41173
2.50151
2.54381
2.47205
2.4345
2.16056
2.10923
1.70402
1.37524
0.953838
1.10312
1.37397
1.65962
1.79048
1.81988
1.90219
1.89171
1.83339
1.81608
1.76337
1.75505
1.80909
1.77882
1.73301
1.76521
1.71004
1.43362
1.29364
1.04316
0.582999
0.726714
0.792985
0.971099
1.0464
1.07882
1.09268
1.14405
1.12438
1.08007
0.997368
1.08095
1.05554
1.06738
1.13636
1.02305
0.933676
0.936946
0.844942
0.655896
0.220502
0.167158
0.264039
0.383486
0.384816
0.377351
0.371465
0.485618
0.332215
0.341362
0.327214
0.309224
0.354327
0.373931
0.386968
0.354304
0.339896
0.283245
0.22283
0.209764
3.13015
3.91836
4.70767
5.34289
5.75053
6.04162
6.17977
6.25618
6.23998
6.14602
6.1266
6.1261
6.09609
6.1574
6.1249
5.97053
5.7382
5.17358
4.49448
3.77434
2.72231
3.39324
4.2491
4.67578
5.10752
5.3199
5.46292
5.46767
5.39719
5.40233
5.28435
5.34623
5.30325
5.38649
5.40333
5.17816
4.94481
4.50679
3.96369
3.37298
2.41562
2.97595
3.61896
4.11778
4.36234
4.53651
4.67664
4.65391
4.58426
4.58562
4.55667
4.63766
4.5763
4.49318
4.55902
4.38906
4.22678
3.83631
3.41371
2.92392
2.009
2.43722
2.97433
3.33999
3.68575
3.71987
3.84118
3.92195
3.83078
3.80992
3.76419
3.72794
3.7826
3.76637
3.65546
3.5665
3.48218
3.14214
2.74966
2.38833
1.68167
1.94461
2.34177
2.68022
2.8019
2.94601
2.9842
3.06279
3.01793
2.95418
2.91285
2.90027
2.93929
2.95775
2.89746
2.85826
2.71926
2.49898
2.14027
1.8316
1.19256
1.43763
1.68707
1.90127
2.05428
2.1341
2.15915
2.24555
2.11884
2.16801
2.10762
2.15056
2.12712
2.1307
2.08032
2.04558
1.95412
1.78356
1.5029
1.27846
0.680986
0.847493
1.02703
1.12974
1.25563
1.32413
1.24644
1.25365
1.36599
1.28078
1.19896
1.24235
1.25898
1.27867
1.25108
1.23601
1.20157
1.05232
0.960777
0.754179
0.31376
0.211254
0.34054
0.402916
0.484124
0.424369
0.44953
0.442024
0.454063
0.374899
0.425898
0.45755
0.362105
0.444142
0.380081
0.464188
0.386438
0.33947
0.27579
0.213816
3.91336
4.77883
5.60933
6.18771
6.68032
7.04101
7.08521
7.25836
7.2486
7.18109
7.21253
7.17295
7.21822
7.1374
7.1203
6.93156
6.62167
6.05635
5.38809
4.65892
3.49737
4.23296
4.89755
5.48294
5.92858
6.07017
6.23514
6.38133
6.30902
6.28816
6.2442
6.1874
6.31093
6.23607
6.2174
6.02979
5.77463
5.36834
4.72521
4.12206
2.99802
3.6137
4.15592
4.65682
5.00052
5.27121
5.31976
5.37436
5.3493
5.32546
5.33532
5.30069
5.343
5.30539
5.22212
5.11551
4.92615
4.51903
3.95242
3.58878
2.49453
3.05569
3.43587
3.80475
4.15259
4.32785
4.33873
4.41982
4.40058
4.41726
4.30048
4.28138
4.3808
4.32778
4.33009
4.14263
3.91922
3.72679
3.29975
2.82865
2.08492
2.35851
2.77519
3.02904
3.2017
3.40492
3.35126
3.51093
3.49484
3.3979
3.39965
3.34623
3.4197
3.4403
3.41235
3.23206
3.12011
2.9491
2.51076
2.18323
1.44408
1.63758
1.87036
2.21441
2.27099
2.36295
2.49635
2.42402
2.42125
2.42697
2.39952
2.41151
2.38635
2.43364
2.46059
2.32909
2.21726
1.98875
1.87133
1.62675
0.889604
0.978011
1.14998
1.28835
1.38633
1.4648
1.49649
1.49693
1.37937
1.48429
1.51454
1.49001
1.44533
1.46922
1.39809
1.44089
1.40023
1.22171
1.10368
0.922958
0.308037
0.286335
0.410263
0.452985
0.497584
0.552873
0.53045
0.502365
0.581501
0.549414
0.523221
0.542921
0.433829
0.459376
0.504766
0.441721
0.411867
0.378288
0.377095
0.365349
4.83472
5.62648
6.43071
7.05447
7.58518
7.91677
8.15701
8.27546
8.21766
8.26174
8.27261
8.2178
8.24055
8.22764
8.08982
7.92696
7.6015
7.06627
6.45059
5.65189
4.311
5.03171
5.59069
6.26553
6.6271
6.92366
7.12169
7.17743
7.24018
7.23881
7.11867
7.20292
7.19073
7.14073
7.07035
6.88452
6.57587
6.16101
5.52462
4.90075
3.63134
4.17311
4.84508
5.3347
5.6888
5.80416
5.93034
6.15895
6.10061
6.08715
6.10133
6.05148
6.05153
6.02267
5.87166
5.82072
5.5396
5.16903
4.67726
4.18226
3.02448
3.55147
3.92143
4.29085
4.60221
4.82942
4.89934
4.93989
4.95649
5.01442
4.99239
5.01409
4.99703
4.93081
4.86127
4.77735
4.61307
4.24129
3.80621
3.42357
2.36797
2.7404
3.103
3.39458
3.67236
3.694
3.8999
3.84291
3.84503
3.88204
3.9349
3.79696
3.89103
3.82552
3.81356
3.66949
3.51699
3.30189
3.01132
2.65848
1.76511
1.93099
2.17401
2.37728
2.50373
2.70118
2.66635
2.79506
2.77207
2.76187
2.79608
2.81021
2.75422
2.76721
2.77012
2.65474
2.5246
2.30267
2.11181
1.89599
1.05992
1.20649
1.41163
1.42707
1.49609
1.65539
1.62069
1.64558
1.75294
1.72892
1.73822
1.64307
1.59762
1.70098
1.55442
1.52423
1.5383
1.38489
1.31882
1.10978
0.394993
0.275155
0.444669
0.473601
0.512792
0.514807
0.544884
0.542719
0.612407
0.531795
0.614753
0.529979
0.556368
0.618625
0.531332
0.489363
0.519028
0.502665
0.413239
0.411769
5.61834
6.44239
7.22745
7.79914
8.31158
8.71477
8.87821
9.08527
9.10036
9.12787
9.20792
9.13038
9.11973
9.07987
8.79073
8.76074
8.35396
7.87671
7.20801
6.4007
4.92077
5.59065
6.23422
6.73637
7.23787
7.57087
7.72664
7.85118
7.87596
7.91758
7.85054
7.81006
7.80481
7.71139
7.67793
7.55047
7.28496
6.72109
6.22061
5.58584
4.20236
4.6844
5.29087
5.78826
6.14583
6.40564
6.51772
6.60665
6.7217
6.64184
6.66575
6.67298
6.55176
6.61576
6.49449
6.34059
6.04269
5.59094
5.2725
4.64333
3.41807
3.89086
4.33205
4.73143
5.03283
5.28606
5.32425
5.45033
5.40713
5.34278
5.43438
5.44502
5.3988
5.32623
5.24624
5.14492
4.96965
4.61552
4.22036
3.78299
2.69478
3.09428
3.39789
3.68336
3.88277
4.02412
4.04768
4.20132
4.1214
4.16503
4.20034
4.19362
4.31121
4.1618
4.10753
3.99029
3.86741
3.5523
3.31039
2.99962
1.95577
2.1485
2.37081
2.58721
2.75491
2.87039
3.01893
2.9602
3.04144
2.91252
3.01296
3.07368
2.97877
2.92584
2.87933
2.89361
2.74989
2.5888
2.33153
2.17058
1.10834
1.28784
1.40038
1.66798
1.63142
1.7427
1.76418
1.76922
1.82921
1.76885
1.83197
1.74005
1.82614
1.74693
1.74283
1.64425
1.65648
1.65445
1.37957
1.27673
0.365888
0.449504
0.433695
0.531694
0.495628
0.675302
0.57156
0.660751
0.55395
0.617154
0.54271
0.621865
0.652705
0.638862
0.527814
0.538378
0.54965
0.52241
0.491571
0.479461
)
;

boundaryField
{
    hotSide
    {
        type            calculated;
        value           nonuniform List<scalar> 
400
(
1.48366
1.46428
1.45487
1.28195
1.17414
0.937149
0.747886
0.606146
0.53696
0.38118
0.523656
0.718507
0.898678
1.49893
2.08116
2.63756
3.55145
4.34951
5.28681
6.08748
2.83527
2.797
2.73772
2.60461
2.36385
2.15285
1.92854
1.69596
1.52751
1.4423
1.55143
1.7655
1.90799
2.23577
2.85252
3.49459
4.34407
5.21901
6.08226
6.91492
4.07557
4.03783
3.87703
3.71086
3.53207
3.18437
2.90334
2.64582
2.48171
2.37312
2.40321
2.54581
2.81882
3.18621
3.66543
4.31007
5.13782
6.05356
6.89019
7.70334
4.91955
4.81752
4.67233
4.40903
4.14344
3.86924
3.55344
3.28757
3.16572
3.06707
3.08093
3.18392
3.41653
3.89117
4.34329
4.9721
5.77739
6.6359
7.51754
8.27829
5.34001
5.18717
5.06676
4.80634
4.43708
4.20114
3.8689
3.65764
3.50965
3.43887
3.49404
3.57061
3.73175
4.22375
4.69922
5.35259
6.18921
7.13227
8.05165
8.79379
5.49024
5.35203
5.12318
4.8114
4.58389
4.21242
3.9256
3.68227
3.56257
3.50337
3.57993
3.67086
3.96874
4.41359
4.98239
5.67334
6.48412
7.4964
8.38633
9.19976
5.60412
5.3352
5.06022
4.79082
4.39319
4.06937
3.87124
3.63044
3.42052
3.36961
3.42403
3.62188
4.04749
4.48666
5.10189
5.9033
6.62559
7.54358
8.62922
9.36557
5.48273
5.27184
5.01765
4.55408
4.18116
4.01822
3.49367
3.30354
3.15074
3.12733
3.20516
3.39977
3.84479
4.36618
5.01732
5.82153
6.70466
7.7191
8.74979
9.57452
5.26764
5.1267
4.7005
4.43865
4.0245
3.58524
3.25702
3.00677
2.82582
2.82228
2.911
3.16334
3.57956
4.19994
4.88722
5.62815
6.69032
7.711
8.69347
9.59092
5.2787
4.96892
4.70222
4.18466
3.74811
3.35026
2.94509
2.69316
2.60835
2.44164
2.58041
2.91962
3.40062
3.99243
4.71714
5.56713
6.59732
7.64434
8.7383
9.61911
5.13994
4.98535
4.52617
4.11682
3.64355
3.21767
2.83997
2.49956
2.29916
2.28544
2.49016
2.73982
3.2971
3.90511
4.65879
5.45186
6.5779
7.67577
8.74917
9.69916
5.12709
4.90772
4.45931
4.06066
3.63378
3.10831
2.85496
2.53843
2.28109
2.27817
2.47631
2.7756
3.25342
3.92472
4.62788
5.50998
6.57644
7.63535
8.6936
9.62094
5.21116
4.90773
4.53587
4.15961
3.7925
3.28111
2.98039
2.6709
2.56526
2.45513
2.57168
2.81336
3.34379
3.9656
4.72666
5.64886
6.54457
7.67895
8.71488
9.60898
5.2257
4.99277
4.61201
4.35479
3.89338
3.48806
3.21681
2.8459
2.74448
2.69948
2.78189
3.07593
3.54603
4.11322
4.80875
5.64308
6.60322
7.59576
8.69986
9.56723
5.13695
4.99991
4.71972
4.38688
4.06467
3.71728
3.36101
3.13276
2.93963
3.01656
3.05252
3.22729
3.58055
4.14585
4.78656
5.62115
6.56739
7.57569
8.55938
9.27572
5.04599
4.8872
4.70909
4.39954
4.09287
3.76278
3.38858
3.1536
3.07606
2.97265
3.05937
3.29685
3.54967
4.07672
4.74598
5.52504
6.40921
7.38352
8.39343
9.24295
4.70139
4.62415
4.44111
4.17462
3.90986
3.66517
3.28353
3.05491
2.89096
2.83146
2.85319
3.09806
3.41029
3.88365
4.44642
5.30026
6.17271
7.06986
8.06458