/*--------------------------------*- C++ -*----------------------------------*\
| =========                 |                                                 |
| \\      /  F ield         | OpenFOAM: The Open Source CFD Toolbox           |
|  \\    /   O peration     | Version:  2212                                  |
|   \\  /    A nd           | Website:  www.openfoam.com                      |
|    \\/     M anipulation  |                                                 |
\*---------------------------------------------------------------------------*/
FoamFile
{
    version     2.0;
    format      ascii;
    arch        "LSB;label=32;scalar=64";
    class       volScalarField;
    location    "0";
    object      relativeErrorField;
}
// * * * * * * * * * * * * * * * * * * * * * * * * * * * * * * * * * * * * * //

dimensions      [0 0 0 1 0 0 0];

internalField   nonuniform List<scalar> 
3200
(
0.00350201
0.0075144
0.0111814
0.0136528
0.0148531
0.015246
0.015534
0.0151296
0.0144591
0.0144755
0.0140634
0.0140415
0.0143222
0.0144078
0.0141934
0.0139759
0.0130012
0.0109133
0.00787717
0.00381971
0.00356312
0.00689857
0.00981818
0.011854
0.0130439
0.0134647
0.0134358
0.0132575
0.0129793
0.0127115
0.0125328
0.0125092
0.0124408
0.0125993
0.01277
0.0121278
0.0117144
0.00972782
0.0068693
0.00377311
0.00299219
0.0060244
0.00875625
0.0104487
0.0111794
0.0115185
0.0118467
0.0116306
0.0112495
0.0112604
0.0111211
0.0108342
0.0107467
0.0109642
0.0108422
0.010676
0.00990601
0.00834794
0.00611946
0.00327424
0.00300077
0.00511968
0.00694271
0.00861323
0.00957208
0.00988315
0.00989041
0.00976021
0.00950297
0.00920487
0.00907502
0.00892952
0.00905495
0.00891263
0.00893787
0.00866236
0.00789372
0.00694371
0.00466344
0.00289364
0.00216631
0.00413072
0.00560946
0.00680673
0.00745405
0.00805603
0.0077288
0.0076499
0.00743068
0.00711617
0.00722794
0.00696825
0.00721809
0.00718478
0.00717164
0.00690815
0.00650628
0.00570394
0.00403591
0.00235864
0.0018009
0.00314284
0.0043106
0.00493984
0.0051067
0.00540513
0.00554582
0.00560807
0.00525868
0.00507696
0.00524953
0.0052276
0.00520527
0.00507291
0.00535432
0.00488352
0.00464488
0.00399194
0.00274454
0.00172441
0.0011467
0.00145508
0.00265727
0.00296112
0.00331023
0.00344171
0.00325428
0.00351236
0.00321967
0.00320895
0.00326088
0.0032253
0.00327248
0.00340143
0.00332325
0.00327839
0.00262002
0.00244944
0.00172114
0.000863129
0.000366387
0.000859397
0.000651827
0.000944384
0.00113608
0.00127651
0.00108405
0.00116029
0.00122447
0.00123148
0.00111
0.00109118
0.0012093
0.00112608
0.00113685
0.000956426
0.000915611
0.000835427
0.00071174
0.000390643
0.00344062
0.00739531
0.011063
0.0133422
0.0143914
0.0148291
0.0147291
0.0144987
0.014037
0.0135525
0.0136013
0.0133866
0.0134164
0.0137103
0.0137803
0.0134969
0.0127648
0.0108826
0.007664
0.00410672
0.00361909
0.00667408
0.00980849
0.0118646
0.0129404
0.013197
0.0129767
0.0126013
0.012368
0.0122448
0.0117509
0.0119205
0.0119804
0.0118858
0.0122163
0.0119851
0.011218
0.00946092
0.00691799
0.00378379
0.00327943
0.00589761
0.00842544
0.0102285
0.0110058
0.0112214
0.0112573
0.0111775
0.0108741
0.0106708
0.010254
0.0102913
0.0103459
0.0105781
0.0104308
0.010525
0.00965574
0.00815181
0.00586396
0.0032974
0.00271742
0.00491899
0.0073956
0.00863685
0.00927087
0.00954154
0.00919717
0.00928199
0.0089749
0.00861344
0.0087706
0.00861884
0.00845273
0.00856031
0.00880076
0.00859391
0.00811467
0.00677658
0.00495193
0.00263414
0.00223309
0.00400727
0.00583026
0.00690093
0.00731936
0.00766109
0.00729834
0.00746328
0.00708273
0.00708057
0.00680892
0.00672325
0.00681065
0.00676791
0.00651797
0.00696506
0.00657002
0.00529933
0.00401483
0.00224826
0.00173014
0.00310527
0.0039879
0.00526688
0.00539418
0.00540497
0.0053582
0.00526615
0.00546479
0.0050813
0.00503433
0.00483854
0.00481565
0.00504523
0.00484506
0.00501288
0.00460235
0.00393541
0.00296831
0.00181221
0.00101714
0.00189379
0.00249428
0.00308771
0.00331545
0.00334862
0.00355381
0.00330815
0.00308651
0.00317853
0.00308908
0.00323048
0.00289239
0.00290699
0.00288856
0.00311404
0.00286661
0.00233295
0.0018379
0.00121819
0.000329751
0.000592339
0.000610446
0.00118327
0.00103866
0.00119881
0.000855193
0.000990369
0.00102596
0.000907655
0.00116545
0.000892182
0.000903301
0.000869549
0.0010819
0.00103689
0.00101029
0.00073602
0.000770117
0.000341742
0.00340587
0.00720892
0.0105716
0.0128972
0.0140212
0.0141373
0.0139023
0.0137356
0.0127649
0.0127549
0.0122324
0.0120489
0.0123044
0.0125696
0.0129364
0.0129553
0.0122073
0.0103457
0.007543
0.00382875
0.00307785
0.0067674
0.00943423
0.0113775
0.012291
0.0130073
0.0126725
0.0121334
0.0117233
0.0110315
0.0111824
0.0110596
0.0110585
0.0112879
0.0113295
0.0115692
0.0105822
0.00915373
0.00671657
0.00350843
0.00289005
0.00591132
0.00846724
0.00976042
0.0106675
0.0108638
0.0108482
0.0103976
0.0100372
0.00980033
0.00954466
0.0094887
0.00965442
0.00981494
0.00997501
0.00974591
0.0091624
0.00777943
0.00557746
0.00312162
0.00272905
0.00472845
0.00679739
0.00819044
0.00889402
0.00916856
0.00890187
0.00887983
0.00822119
0.00811049
0.00805272
0.0078762
0.00808359
0.00799556
0.00827835
0.00807605
0.00767911
0.00637095
0.00480038
0.00291599
0.00234412
0.00398032
0.00554375
0.0065537
0.00721979
0.00703529
0.00716065
0.00692368
0.00668311
0.00644937
0.00640593
0.0061185
0.00638714
0.00651622
0.00638091
0.00649544
0.00617762
0.00511952
0.00394259
0.00216352
0.00148454
0.00295448
0.00378932
0.00472704
0.00521635
0.00512959
0.00550446
0.0051391
0.0050154
0.00470461
0.00466272
0.00438993
0.00460646
0.0048742
0.00463933
0.00476358
0.00459207
0.0037218
0.00254104
0.00158238
0.00104888
0.00181219
0.00238047
0.00313376
0.00313125
0.00307232
0.00313252
0.00305854
0.00285165
0.00275717
0.00275823
0.00272262
0.00283981
0.00257072
0.00308798
0.00284126
0.00277233
0.00219422
0.00181457
0.000803666
0.000591887
0.000414614
0.000873231
0.000942605
0.000808547
0.00103254
0.00105425
0.000839986
0.00132634
0.00103065
0.000995503
0.00109113
0.00103518
0.000866755
0.000917111
0.00118814
0.000885924
0.000825497
0.000814103
0.000371368
0.00287893
0.00679777
0.0100595
0.012095
0.0132289
0.0131949
0.0130885
0.012348
0.0119785
0.0112113
0.0110101
0.0108574
0.0111773
0.0117934
0.0119325
0.0120179
0.0113963
0.00964603
0.00700137
0.00342778
0.00285709
0.00607711
0.00901206
0.0107943
0.011798
0.0119607
0.0115497
0.0111675
0.0107227
0.0102549
0.0100247
0.00983707
0.00997609
0.0101871
0.0106292
0.0106631
0.0102104
0.00877853
0.00626014
0.00337803
0.00273916
0.00546755
0.00761282
0.00936406
0.0101172
0.0105273
0.00989662
0.00972637
0.00913961
0.00874048
0.00870797
0.00855127
0.0086034
0.00894715
0.00901812
0.00940197
0.00857469
0.00747576
0.0050525
0.00273545
0.00232892
0.00449958
0.00647466
0.00786505
0.00849984
0.0086012
0.00828193
0.00819548
0.00792375
0.00739976
0.00732032
0.00728992
0.00708327
0.00737379
0.00753497
0.0075735
0.00711203
0.00618106
0.00440535
0.00217096
0.00220755
0.0035936
0.00537807
0.00629684
0.0065492
0.00674255
0.00696948
0.00645461
0.00611864
0.00561989
0.00547347
0.00572027
0.00611947
0.00582924
0.00620927
0.00597881
0.00560726
0.0048162
0.00354187
0.00204145
0.00132641
0.00285815
0.00407184
0.00466953
0.00483806
0.00488323
0.00494988
0.00471112
0.00455483
0.00408588
0.00414621
0.00427309
0.00433256
0.0044888
0.00442894
0.00431835
0.00412741
0.00356384
0.00253768
0.00142102
0.000877752
0.00179705
0.00229673
0.00260188
0.00307716
0.00295098
0.00300839
0.00275866
0.00293914
0.00276572
0.00279287
0.00261643
0.00261295
0.00272007
0.00246393
0.00255941
0.00262101
0.0023985
0.00173875
0.000770206
0.00050729
0.000476721
0.000800028
0.00101108
0.00107083
0.000894066
0.000789293
0.00104856
0.00096067
0.00089249
0.000987967
0.000969824
0.00112393
0.000680947
0.000915728
0.000633378
0.00113658
0.000728732
0.000497916
0.000232656
0.00254456
0.00606213
0.00950568
0.0112822
0.0121092
0.0124994
0.0118913
0.0112278
0.0107387
0.00990717
0.00959753
0.00958129
0.0100758
0.0104087
0.0109576
0.0110859
0.010587
0.00893419
0.00635941
0.00280762
0.00229821
0.00545103
0.00840869
0.0101596
0.0109003
0.0110762
0.0109597
0.0102361
0.00969368
0.00882269
0.00866955
0.00871275
0.00866181
0.00913941
0.00983004
0.00976121
0.00936203
0.00798872
0.00584661
0.003078
0.00266805
0.00498396
0.00730154
0.00885156
0.0093943
0.00945629
0.00930952
0.00902679
0.00834639
0.00779653
0.00741846
0.00758931
0.00772459
0.00791469
0.0082583
0.00836219
0.00805816
0.00681432
0.00484472
0.00239804
0.00199802
0.00424695
0.00618928
0.00738282
0.00806829
0.00821324
0.00770148
0.00734421
0.00691198
0.00666285
0.00624287
0.00624975
0.00654322
0.00673897
0.00710089
0.00692053
0.00672322
0.00577218
0.00393443
0.00213295
0.00175694
0.00349905
0.00480308
0.0058765
0.00624271
0.00625258
0.00653995
0.00570266
0.00538826
0.00540342
0.00491834
0.0050854
0.00521831
0.00542965
0.00556624
0.00565336
0.00535422
0.00435743
0.00324766
0.0016414
0.00155574
0.00241934
0.00330694
0.00447773
0.00480435
0.00457265
0.00475975
0.00443833
0.00404251
0.00392961
0.00385542
0.00375673
0.00356214
0.00413964
0.00426556
0.00400389
0.00404844
0.003291
0.00264553
0.00152942
0.00113495
0.00158917
0.00229997
0.00237583
0.00280122
0.0028588
0.0027801
0.002635
0.00227255
0.00240442
0.00204787
0.00226942
0.00233586
0.00227196
0.00216118
0.0025016
0.00235269
0.00185758
0.0013944
0.000905212
0.000264771
0.000517704
0.000744147
0.000880705
0.00106259
0.000833606
0.00101952
0.000992399
0.000897584
0.000975871
0.000805689
0.000772987
0.000740268
0.000700575
0.00100323
0.000840676
0.000735362
0.000462079
0.000608146
0.000273864
0.00182333
0.00541322
0.00844594
0.0104406
0.0113828
0.0113737
0.0109112
0.0107276
0.00942386
0.00871727
0.00832526
0.00801336
0.00854637
0.0091896
0.00990592
0.0100819
0.00983432
0.00794839
0.00548815
0.002235
0.00173478
0.00512204
0.00760607
0.0091453
0.0101156
0.0105233
0.00985604
0.00930377
0.00850517
0.0079066
0.00742111
0.00750137
0.00763495
0.00826592
0.00889312
0.00880076
0.00843486
0.00692638
0.00511272
0.00232606
0.00169588
0.00421071
0.00691815
0.0081666
0.00891753
0.00888434
0.00856548
0.0081539
0.00754377
0.00709072
0.00646213
0.006405
0.00689665
0.0069925
0.00759315
0.00816409
0.00727219
0.00617675
0.00434215
0.00190169
0.00181552
0.00371339
0.00549153
0.0068335
0.00731489
0.0075651
0.00724775
0.00665847
0.00642885
0.00569715
0.00550829
0.00532256
0.00586272
0.00603689
0.00629605
0.00645151
0.00606344
0.00533918
0.00347177
0.00186652
0.0012015
0.0032847
0.00444017
0.00563576
0.00591907
0.0059374
0.00594439
0.00556597
0.00487093
0.00452625
0.00460713
0.00429647
0.004629
0.00467429
0.00511014
0.00512971
0.00484314
0.00407791
0.00297152
0.00167043
0.00123136
0.00221571
0.00323146
0.00394394
0.00450293
0.0043065
0.0042572
0.00412577
0.00380951
0.00344237
0.00327811
0.00326398
0.00342594
0.00363134
0.00362404
0.00372774
0.00363434
0.00315497
0.00207113
0.0014658
0.000650677
0.00126376
0.00206312
0.0024918
0.00272408
0.00269081
0.00261615
0.0024542
0.00217586
0.0022951
0.00209397
0.00205049
0.00216553
0.00191909
0.00235694
0.00222178
0.00229479
0.0019023
0.00121964
0.000713307
0.000123627
0.00059786
0.000624775
0.000706087
0.00107991
0.000748317
0.000672187
0.000696582
0.000673067
0.00095923
0.000571962
0.000860522
0.000751193
0.000881563
0.000594399
0.00112409
0.000516962
0.000402241
0.000442255
0.000474592
0.00124404
0.00472327
0.00758316
0.00947328
0.0103682
0.010497
0.0103008
0.00915619
0.00843694
0.00750576
0.00719554
0.00725012
0.00764027
0.00836657
0.0088268
0.00894584
0.0086732
0.00729279
0.00479026
0.00167891
0.0012926
0.00438654
0.00681394
0.00844584
0.00938015
0.00939036
0.00901508
0.00837096
0.00764229
0.00674869
0.00656947
0.00617433
0.00695194
0.00757478
0.00796142
0.00830076
0.00779144
0.00616542
0.00424965
0.00169724
0.00156859
0.00396272
0.00613706
0.00772167
0.00827583
0.0083338
0.00810584
0.00734238
0.00660783
0.00613327
0.006039
0.00575455
0.00612692
0.0064471
0.00698291
0.00695367
0.0065968
0.00538575
0.00362421
0.00151979
0.00143517
0.00315516
0.00510614
0.00639555
0.00705764
0.00683342
0.00680307
0.00637961
0.00577451
0.00511871
0.0047383
0.00463319
0.00512858
0.00570015
0.00596555
0.00609183
0.00561758
0.00473979
0.00319821
0.00158628
0.00106164
0.00267049
0.00412155
0.00515476
0.00572195
0.00519708
0.00537227
0.00483775
0.00453688
0.00422936
0.00392771
0.00373408
0.00412135
0.00425827
0.0045156
0.0045306
0.00459747
0.00371258
0.00241352
0.00108921
0.000976056
0.00176544
0.00288253
0.00372618
0.00392711
0.00426599
0.00393366
0.0038273
0.00339603
0.00316243
0.00283896
0.0027448
0.00311167
0.00359648
0.0033227
0.00329026
0.00325874
0.00292481
0.00166524
0.000868149
0.000412412
0.000964941
0.00201774
0.00228638
0.00241311
0.0025711
0.0024207
0.00211761
0.00219723
0.00180492
0.00169032
0.00161315
0.00176421
0.00191804
0.00233995
0.00188864
0.00183456
0.00174831
0.000858139
0.000619446
0.000314293
0.000541156
0.000836558
0.000736931
0.000859863
0.00093471
0.000716084
0.000860491
0.000647563
0.000821503
0.000634856
0.000561654
0.000525376
0.00046317
0.000779674
0.000835709
0.000636266
0.000613692
0.000287206
1.95745e-05
0.000805674
0.00400811
0.00678901
0.00865247
0.00970966
0.0097468
0.00956172
0.00857179
0.00767902
0.00674607
0.00617605
0.00629973
0.00670771
0.00724845
0.00812516
0.00822083
0.00796459
0.00660394
0.00404379
0.00131889
0.00086568
0.00376665
0.00620696
0.00794773
0.00877879
0.00883521
0.00846164
0.00778151
0.00716413
0.00624409
0.00536055
0.00568419
0.00635143
0.00692004
0.00728676
0.00755421
0.00724809
0.00609568
0.00374769
0.00127163
0.00110415
0.00380458
0.00549733
0.00701715
0.00760652
0.00774586
0.00739991
0.00672209
0.0061939
0.0054034
0.00511551
0.00487091
0.00522251
0.00578733
0.00643562
0.00666329
0.00613906
0.00531487
0.00324902
0.00113152
0.000972645
0.00297417
0.00485644
0.0060398
0.00650617
0.006498
0.00628656
0.00583283
0.00508334
0.00450852
0.00402521
0.00427395
0.0047063
0.00488403
0.0051555
0.00552638
0.00500864
0.00439634
0.0031412
0.00115598
0.000787196
0.00224515
0.00382821
0.00454689
0.00521969
0.00499344
0.00497325
0.00469154
0.00427112
0.00374853
0.0033136
0.00316798
0.00380912
0.00364526
0.00412482
0.00409241
0.00417481
0.00333099
0.00208721
0.00085336
0.000781473
0.00151522
0.00278272
0.00343943
0.00370261
0.00385534
0.0034741
0.00355633
0.00316196
0.00284661
0.00269148
0.00254905
0.00258265
0.00289851
0.00307842
0.00309903
0.00301084
0.00278266
0.00158441
0.000499274
0.000603423
0.00107153
0.00151494
0.00204739
0.00230937
0.00225132
0.00214171
0.00201761
0.00194215
0.00177835
0.00145444
0.001484
0.00172411
0.001723
0.00204588
0.00183824
0.00159632
0.00152716
0.000967673
0.000413166
0.000248245
0.000406205
0.000394656
0.000789672
0.000675981
0.000885391
0.000698299
0.000725013
0.000729835
0.000516924
0.00065228
0.000493711
0.000540955
0.000828074
0.000500632
0.0006831
0.000688324
0.000511833
0.00023976
8.36314e-05
0.000581454
0.00348245
0.00626993
0.00825507
0.00923503
0.00935836
0.00891133
0.00809457
0.00712332
0.00647612
0.00556818
0.00552334
0.00637411
0.00692351
0.00752526
0.00795804
0.00744511
0.00617754
0.00382763
0.000896782
0.000726537
0.00308756
0.00588168
0.00755002
0.00832127
0.00848495
0.00812805
0.00725769
0.00633303
0.0056277
0.00512462
0.00510235
0.00551157
0.00625549
0.00688237
0.00686257
0.0065972
0.00547907
0.00333485
0.00128577
0.000644592
0.00304915
0.00530096
0.00648259
0.00712602
0.0073064
0.00715789
0.00655129
0.00573734
0.00519953
0.00462509
0.00460232
0.0051814
0.00551066
0.00595374
0.00608985
0.00571835
0.00477783
0.00305057
0.00125119
0.000828085
0.00269893
0.00451268
0.0054487
0.0060503
0.00638411
0.00612023
0.00547259
0.00490883
0.00401486
0.00382947
0.00411193
0.00434805
0.00430617
0.00518723
0.00528421
0.00467176
0.00361086
0.00250573
0.00115195
0.000784141
0.00225316
0.00339764
0.00452933
0.00492206
0.00488937
0.00484576
0.00439742
0.00376461
0.00342336
0.00300989
0.0031866
0.00335644
0.00369312
0.00380592
0.00411387
0.00388223
0.00328533
0.0020791
0.000974919
0.000684681
0.00153651
0.00264924
0.00319836
0.00358775
0.00386459
0.0036176
0.00324722
0.00300685
0.00253376
0.00241191
0.00225351
0.00263982
0.00280688
0.00277489
0.00313364
0.00296416
0.00223131
0.00167021
0.000784827
0.000591623
0.000789049
0.00156549
0.00211517
0.00218998
0.00232703
0.00204642
0.00195269
0.00170502
0.00174969
0.00140801
0.00155135
0.00157988
0.00144201
0.00194091
0.00186896
0.00179772
0.0014082
0.000904461
0.000585756
0.000224869
0.000457594
0.000156152
0.00049265
0.000915242
0.000604765
0.000647259
0.000643909
0.000482666
0.000698085
0.000445334
0.000679678
0.000487064
0.000723629
0.000719381
0.000789562
0.000646547
0.000429328
0.0005683
0.000203529
0.000100949
0.0032012
0.0059124
0.00792255
0.00898384
0.0091435
0.0087248
0.00799338
0.00708489
0.00596277
0.00550547
0.0054916
0.00602421
0.0067606
0.00771561
0.00761525
0.00723034
0.00578377
0.00371787
0.000997022
0.000740351
0.00331635
0.0052217
0.00709766
0.00812991
0.00817547
0.00800541
0.00720872
0.00637009
0.0058848
0.00500385
0.00521513
0.00526401
0.00601806
0.00648216
0.00672241
0.00662075
0.00516022
0.00340955
0.00117223
0.000880032
0.00295578
0.00481757
0.00630025
0.0067348
0.00714861
0.00676482
0.00640938
0.00561745
0.00517495
0.00475422
0.00426753
0.00506451
0.00524273
0.00602302
0.00591728
0.00576316
0.00465748
0.00292056
0.00126057
0.000817329
0.00259571
0.00424369
0.00496654
0.00596012
0.00599441
0.00595666
0.00556103
0.00481778
0.00438889
0.00382673
0.00379101
0.00405329
0.00443869
0.00511168
0.00503954
0.004536
0.00381409
0.00250508
0.00100175
0.000437917
0.00206496
0.00325481
0.00440876
0.00494701
0.00474727
0.00480015
0.0041626
0.00384679
0.00364043
0.00321359
0.0031657
0.00359093
0.00352266
0.0040557
0.004006
0.00372807
0.00323159
0.00213304
0.000890626
0.000721353
0.00143144
0.00223423
0.00345558
0.00364044
0.0033
0.00328292
0.00318718
0.0028781
0.00253179
0.00239017
0.0021685
0.00255989
0.00267148
0.00288609
0.00301274
0.00279066
0.00231079
0.00156373
0.000682555
0.000543079
0.00110102
0.00170036
0.00173026
0.00208259
0.00218323
0.00218825
0.0020084
0.00173463
0.00142819
0.00126964
0.00164444
0.00154489
0.00170478
0.00174211
0.00171718
0.00170189
0.00152896
0.00108104
0.000250088
5.60732e-05
0.000287683
0.000320706
0.000758974
0.000729694
0.000905406
0.000517395
0.000560242
0.000429885
0.000875149
0.000331628
0.000531923
0.000329534
0.000646463
0.000662952
0.000660608
0.000550344
0.000316296
0.000276807
4.74575e-05
0.000496026
0.0034877
0.00595861
0.00791576
0.00909634
0.0093204
0.00884079
0.00818221
0.00731006
0.00633854
0.00607522
0.0060416
0.006333
0.0069653
0.00777903
0.00782509
0.00724921
0.00592771
0.00389984
0.00146776
0.000853207
0.00345603
0.00547914
0.00733412
0.00807357
0.00829429
0.00808714
0.00731083
0.0066747
0.00581651
0.00543946
0.00555043
0.00591594
0.00658723
0.00666102
0.0069403
0.00660937
0.00515455
0.00354236
0.00151125
0.000864687
0.00294309
0.00500221
0.00614535
0.00710729
0.0073524
0.00711777
0.00642448
0.0057172
0.0051839
0.00473346
0.00479023
0.004952
0.00552822
0.0060596
0.00621694
0.00580689
0.00464158
0.00341915
0.0010502
0.00106047
0.00288421
0.00443352
0.00511397
0.00604252
0.00615165
0.00588949
0.00556945
0.00501227
0.00456369
0.00415656
0.00410762
0.00418913
0.00475314
0.00508295
0.00497716
0.00498681
0.00387901
0.00249066
0.0013379
0.000894997
0.00214985
0.00348625
0.00426438
0.00469851
0.00493206
0.0048148
0.00434628
0.00399153
0.00372343
0.00333626
0.00325338
0.00345313
0.00377498
0.00411622
0.00410518
0.00379012
0.00326384
0.0021319
0.000845513
0.00078697
0.00142511
0.00259573
0.0031914
0.00348739
0.0035429
0.00372639
0.00316836
0.00319078
0.00270239
0.00242116
0.00242459
0.00245638
0.00264469
0.0029199
0.00319184
0.0030656
0.00259224
0.00172596
0.000932136
0.000305116
0.00108859
0.00163998
0.00175834
0.00217733
0.00234581
0.00235704
0.00205562
0.00182281
0.00136172
0.00142168
0.00152382
0.00183113
0.00179319
0.00181933
0.00185993
0.00167924
0.00154169
0.000963112
0.000591244
0.000130744
0.000436993
0.000509876
0.000498177
0.000670487
0.000737158
0.000661027
0.00050522
0.000640907
0.00044839
0.000695952
0.000292305
0.000468339
0.000512243
0.000527797
0.000558089
0.000716507
0.000474124
0.000109739
0.000247037
0.00103782
0.00407395
0.00632731
0.00816272
0.00926365
0.00953089
0.00936638
0.00870262
0.00800289
0.00728815
0.00676561
0.00687582
0.00699751
0.00777818
0.00823977
0.00846629
0.00791245
0.00638682
0.00432375
0.00213371
0.0014087
0.00375176
0.00577309
0.00747125
0.00842345
0.00904582
0.00828899
0.00787802
0.00739495
0.00649489
0.00611249
0.00639938
0.00648385
0.00698391
0.00750998
0.0073107
0.00682217
0.00588433
0.00409052
0.00217581
0.00150493
0.00316485
0.00505738
0.00659876
0.00743447
0.00790197
0.00756745
0.0072362
0.00642156
0.00588288
0.00554661
0.00546653
0.00561425
0.00611172
0.00645847
0.00650319
0.00627122
0.00516413
0.00379132
0.00162965
0.00139942
0.00285452
0.00453095
0.00573038
0.00631902
0.00646078
0.00642141
0.00597457
0.00563018
0.00507148
0.00490939
0.00467771
0.00495409
0.00530436
0.00569772
0.00564485
0.00516214
0.0045243
0.00309084
0.00186742
0.00117141
0.00235716
0.00348148
0.00443928
0.0051692
0.00540725
0.0050668
0.00485004
0.00432835
0.00387768
0.00367934
0.00372573
0.00383218
0.00430467
0.00425115
0.00459043
0.00415894
0.00335994
0.00231071
0.00136602
0.000897719
0.00187442
0.00240886
0.00315744
0.00371085
0.0037698
0.0037403
0.00356696
0.00305957
0.00295693
0.00273001
0.00246418
0.00284832
0.00284695
0.00341236
0.00305949
0.00295329
0.00248033
0.00182288
0.00122415
0.000688494
0.00122747
0.00186019
0.00187595
0.00229496
0.0021774
0.00219523
0.00208306
0.0021859
0.00179026
0.00193743
0.00184493
0.00169405
0.00180151
0.00200893
0.00219422
0.0018051
0.00150211
0.000947564
0.000594254
0.00022294
0.00015595
0.000483641
0.000533752
0.000798873
0.000700214
0.00107584
0.000853606
0.000540011
0.000813893
0.000320425
0.000453833
0.000794653
0.000704531
0.00074431
0.000881357
0.000703891
0.000662033
0.000506143
0.000526144
0.00152879
0.00444246
0.00706589
0.00877726
0.00966783
0.0103322
0.01054
0.00993669
0.00915746
0.0086338
0.00833422
0.00821353
0.0084862
0.0090876
0.00920724
0.00913987
0.00875915
0.00753625
0.00531477
0.0029945
0.00206892
0.00440921
0.00650716
0.00809793
0.00893104
0.00941833
0.00924141
0.00883615
0.00838685
0.0078783
0.0072825
0.00727026
0.00766934
0.00789765
0.00826362
0.00855037
0.00766098
0.0068855
0.00487402
0.0029299
0.00202022
0.00390662
0.00586595
0.00719145
0.00786438
0.00824973
0.0082206
0.00778508
0.00720174
0.00689737
0.00642995
0.00657805
0.00650975
0.00720416
0.00730993
0.00738184
0.00696772
0.00566148
0.00426888
0.00285583
0.00181781
0.00337084
0.00475203
0.00599077
0.0066098
0.00688988
0.00685624
0.00681686
0.00622125
0.00588331
0.00541554
0.00548432
0.00553335
0.00601601
0.00609394
0.0058714
0.00580437
0.00492252
0.00374269
0.00252729
0.00153584
0.00281355
0.00391132
0.00471976
0.00538476
0.00539835
0.00556787
0.00522
0.00478737
0.0046541
0.00443985
0.00431017
0.00466532
0.00465903
0.00506396
0.00493358
0.00456551
0.00374016
0.00290567
0.00176502
0.00131126
0.00226828
0.00262843
0.00345497
0.00401437
0.00413089
0.00421761
0.00352693
0.00371928
0.00335233
0.00313064
0.00329802
0.00319097
0.00366197
0.00360655
0.00373584
0.00307617
0.00268634
0.00200935
0.00150772
0.000675606
0.00138272
0.00192646
0.00215732
0.00233388
0.00263661
0.00266449
0.00249265
0.00218885
0.00205887
0.0017216
0.00171721
0.00215915
0.00200666
0.00239393
0.00236563
0.00192844
0.00165546
0.00139437
0.000850989
0.00018781
0.000372052
0.000578979
0.000761304
0.000737218
0.000703088
0.00107417
0.000755261
0.000404316
0.000764236
0.000602991
0.00075881
0.000636594
0.000873927
0.000786329
0.000604763
0.000499154
0.000766055
0.000489532
0.000305451
0.00322617
0.00533816
0.00806407
0.010078
0.0110157
0.0115422
0.0117342
0.0113719
0.0108823
0.0102792
0.0100277
0.0100895
0.0102176
0.0106577
0.0107701
0.0105915
0.0100563
0.00899266
0.00679209
0.00431241
0.00291948
0.00540538
0.0073932
0.00911929
0.0101325
0.0105616
0.0105447
0.0100107
0.00995053
0.00926854
0.0086909
0.00896252
0.00903517
0.00951412
0.0097298
0.00952132
0.00893081
0.00775425
0.00618725
0.00419895
0.00286522
0.00465888
0.00657751
0.00799361
0.00887013
0.0092253
0.00916175
0.00867104
0.00859346
0.00820534
0.0078804
0.00791429
0.00815935
0.00815306
0.00856639
0.00836554
0.00780386
0.00664056
0.00523076
0.00385572
0.00266849
0.00407883
0.00572749
0.00651531
0.00742435
0.00784761
0.00776877
0.00738998
0.00708788
0.00692374
0.0065804
0.0064937
0.00667608
0.00707153
0.00721057
0.00694674
0.00638474
0.00587337
0.00455469
0.00322624
0.00224854
0.00326335
0.00456783
0.00543779
0.0058899
0.00629241
0.00610897
0.00629287
0.00577747
0.00539236
0.00546793
0.00525455
0.00540973
0.00560172
0.00566041
0.00561723
0.00531363
0.00455394
0.00362404
0.00259476
0.00165262
0.00246871
0.00334758
0.00393227
0.00429968
0.00464714
0.00444145
0.00445348
0.0041064
0.00429874
0.00401995
0.00389581
0.00397132
0.00424287
0.0041695
0.00426839
0.00380076
0.00377939
0.00266728
0.00192773
0.00113281
0.00142609
0.00208367
0.00225904
0.00278156
0.00267259
0.00296231
0.00279168
0.00285132
0.00270052
0.00245967
0.00237896
0.00242886
0.00261852
0.00247977
0.0025733
0.00235405
0.00200618
0.0016722
0.00124997
0.000542026
0.000473702
0.000614725
0.00090834
0.00101687
0.000997796
0.00082549
0.000976509
0.000728115
0.000826786
0.000832466
0.000996658
0.000742008
0.000823495
0.000644748
0.000785857
0.000679088
0.000874471
0.000693424
0.000314558
0.00484962
0.00705007
0.00936691
0.0112935
0.0122946
0.0130876
0.013413
0.0131565
0.0127737
0.0122813
0.0121141
0.0120304
0.0123232
0.0125724
0.0125258
0.0124289
0.0115896
0.0103451
0.00850196
0.00633
0.0042803
0.0064688
0.00882456
0.0102546
0.0112928
0.0119514
0.0118169
0.0116965
0.0115366
0.0111896
0.0109883
0.0109427
0.0109266
0.0112064
0.0111921
0.0111324
0.0103265
0.00938255
0.00774097
0.00565066
0.00410209
0.00585709
0.00765749
0.00886388
0.0100151
0.010465
0.0107163
0.0101808
0.00995432
0.00962024
0.00963933
0.0095862
0.00934961
0.00958996
0.00981647
0.00975126
0.00889344
0.00810042
0.00651907
0.00495394
0.00344724
0.00502491
0.00645476
0.00760593
0.00817741
0.0085151
0.00879957
0.00872549
0.00858576
0.0079487
0.00808006
0.00798542
0.00826204
0.00808466
0.00839273
0.00823078
0.00769526
0.00676794
0.00573997
0.00445534
0.00276931
0.00427742
0.00525593
0.00615878
0.00687258
0.00684461
0.00705871
0.00708424
0.00659661
0.00621187
0.00644993
0.0064946
0.00639502
0.00668205
0.00630857
0.00619981
0.00616048
0.00537243
0.0044506
0.00330717
0.00217063
0.00301548
0.00393285
0.00423452
0.00490641
0.00529357
0.005152
0.0051152
0.00488417
0.00460569
0.0046866
0.00472929
0.0046319
0.00487033
0.00485969
0.00476115
0.00454045
0.00405116
0.00320651
0.0026674
0.00119481
0.00178257
0.00227444
0.00274799
0.00307702
0.00341863
0.00304194
0.00318841
0.00290812
0.00324505
0.00289374
0.00256464
0.00271025
0.00275474
0.00295737
0.00275046
0.00260069
0.00233915
0.00217465
0.00150217
0.00036988
0.000811997
0.00093127
0.000932491
0.0010006
0.000847763
0.00134919
0.001122
0.00106197
0.000995587
0.00110599
0.000945866
0.00122447
0.0010367
0.00116372
0.000812606
0.000887234
0.00103511
0.000991363
0.000587948
0.00637612
0.00880949
0.0111212
0.0129925
0.0140593
0.0149563
0.0155959
0.0153497
0.0147892
0.0146106
0.0142821
0.0144524
0.0148574
0.0148538
0.0148073
0.0145515
0.0139296
0.0123854
0.0103874
0.00819053
0.0059789
0.00822775
0.0100875
0.0119304
0.0129858
0.0133865
0.0138671
0.0136102
0.0135341
0.0134718
0.0132087
0.0128277
0.0131043
0.0132314
0.0132492
0.0130806
0.0123511
0.0111489
0.00934415
0.00737526
0.00556666
0.00735465
0.00898495
0.0104585
0.0112945
0.0118797
0.011984
0.0119792
0.0118724
0.0117467
0.0113277
0.0115442
0.0114469
0.0115181
0.0115626
0.0112036
0.0106031
0.00965081
0.00811139
0.00685551
0.00473296
0.00630674
0.00754316
0.00879997
0.00969818
0.00999318
0.010131
0.00997312
0.0101851
0.00968499
0.0094407
0.00939719
0.00942531
0.00978216
0.00969426
0.00945375
0.00887555
0.00817219
0.00686024
0.00557104
0.00422791
0.00504198
0.00590638
0.00710298
0.00764521
0.0079299
0.00796145
0.00811871
0.00780983
0.00782418
0.00762514
0.00745719
0.00773562
0.0078676
0.00764712
0.00753257
0.00668656
0.00652928
0.00527617
0.00425893
0.00301523
0.00348669
0.00434204
0.00524382
0.00565633
0.0057483
0.00600746
0.00597369
0.00578909
0.00573418
0.00556775
0.0055417
0.00571279
0.00561783
0.00547389
0.00557648
0.00540314
0.00453055
0.00408886
0.00329758
0.00188184
0.00234555
0.00255918
0.00313366
0.00337628
0.00348056
0.00352499
0.00369045
0.00362684
0.00348381
0.00321706
0.00348674
0.00340493
0.00344335
0.0036662
0.00330095
0.0030129
0.00302378
0.00272714
0.00211714
0.00072705
0.000551146
0.000870544
0.00126432
0.00126866
0.00124401
0.00122457
0.00160085
0.00109513
0.00112528
0.00107864
0.00101934
0.00116804
0.0012327
0.00127571
0.00116807
0.00112061
0.00093387
0.000734706
0.000691644
0.00889543
0.0111315
0.0133681
0.0151653
0.0163156
0.0171349
0.0175209
0.0177328
0.0176836
0.0174157
0.0173606
0.0173609
0.017279
0.0174574
0.0173711
0.0169398
0.0162874
0.0146912
0.0127681
0.0107261
0.00789616
0.0098392
0.0123163
0.0135478
0.0147934
0.0154032
0.0158127
0.0158227
0.0156162
0.0156297
0.0152884
0.0154687
0.0153469
0.0155915
0.0156448
0.0149979
0.0143273
0.0130632
0.0114933
0.00978346
0.00715245
0.00880928
0.0107092
0.0121813
0.0129007
0.0134118
0.0138225
0.0137525
0.0135448
0.0135478
0.0134623
0.0137025
0.0135232
0.0132803
0.0134783
0.0129797
0.0125037
0.0113524
0.0101051
0.00865749
0.00607359
0.00736664
0.00898767
0.0100898
0.0111313
0.0112316
0.0115954
0.0118372
0.0115607
0.011497
0.011359
0.0112503
0.0114166
0.0113696
0.0110371
0.0107712
0.0105193
0.00949473
0.00831098
0.00722039
0.00519228
0.0060031
0.00722762
0.00827038
0.00864401
0.00908683
0.00920309
0.00944417
0.00930496
0.00910795
0.00898051
0.00894217
0.00906336
0.00912151
0.00893709
0.0088179
0.00839085
0.00771282
0.00660712
0.00565517
0.00376165
0.0045341
0.00531999
0.00599447
0.0064759
0.00672658
0.0068047
0.00707626
0.00667653
0.00683123
0.00664092
0.00677647
0.00670308
0.00671503