/*--------------------------------*- C++ -*----------------------------------*\
| =========                 |                                                 |
| \\      /  F ield         | OpenFOAM: The Open Source CFD Toolbox           |
|  \\    /   O peration     | Version:  2212                                  |
|   \\  /    A nd           | Website:  www.openfoam.com                      |
|    \\/     M anipulation  |                                                 |
\*---------------------------------------------------------------------------*/
FoamFile
{
    version     2.0;
    format      ascii;
    arch        "LSB;label=32;scalar=64";
    class       volScalarField;
    location    "0";
    object      stateMean;
}
// * * * * * * * * * * * * * * * * * * * * * * * * * * * * * * * * * * * * * //

dimensions      [0 0 0 1 0 0 0];

internalField   nonuniform List<scalar> 
3200
(
313.737
313.86
313.965
314.204
314.344
314.411
314.447
314.541
314.556
314.599
314.53
314.532
314.427
314.4
314.296
314.252
314.041
313.898
313.719
313.639
312.065
312.139
312.327
312.467
312.574
312.682
312.679
312.724
312.694
312.763
312.721
312.722
312.719
312.616
312.499
312.494
312.324
312.17
312.028
311.935
310.305
310.385
310.535
310.667
310.7
310.827
310.856
310.949
310.906
310.909
310.814
310.835
310.829
310.777
310.671
310.651
310.536
310.42
310.301
310.193
308.477
308.648
308.692
308.78
308.849
308.909
308.954
309.02
309.033
308.993
308.992
308.98
308.983
308.905
308.864
308.751
308.641
308.589
308.438
308.39
306.703
306.677
306.811
306.909
306.962
306.976
306.963
307.048
307.134
307.001
307.067
307.031
306.978
307.001
306.902
306.871
306.782
306.693
306.624
306.533
304.763
304.808
304.796
304.905
305.016
305.05
305.061
304.973
305.12
305.003
304.992
305.038
305.016
304.994
305.023
304.931
304.897
304.834
304.729
304.651
302.843
302.902
302.968
302.964
303.012
303.008
303.05
303.066
302.996
303.055
303.053
303.019
303.011
303.004
302.95
302.994
303.019
302.894
302.836
302.822
300.993
300.971
300.982
301.04
300.971
300.948
301.041
300.978
301
301.015
301.032
301.032
300.978
301.023
301.015
301.017
300.962
300.965
300.944
300.958
314.329
314.461
314.682
314.87
315.002
314.999
315.156
315.194
315.278
315.205
315.212
315.269
315.159
315.073
315.005
314.892
314.772
314.603
314.434
314.31
312.562
312.739
312.82
312.932
313.164
313.231
313.263
313.278
313.388
313.346
313.299
313.346
313.311
313.208
313.088
313.05
312.938
312.723
312.552
312.47
310.712
310.808
310.912
311.065
311.205
311.338
311.319
311.295
311.378
311.295
311.366
311.395
311.267
311.241
311.144
311.063
310.991
310.865
310.756
310.61
308.858
308.88
309.09
309.153
309.244
309.273
309.277
309.314
309.483
309.399
309.397
309.318
309.301
309.247
309.163
309.17
309.14
308.903
308.796
308.719
306.941
306.975
307.119
307.099
307.225
307.26
307.284
307.249
307.334
307.381
307.311
307.244
307.285
307.228
307.243
307.151
307.022
307.005
306.855
306.841
304.957
305.005
305
305.122
305.154
305.202
305.152
305.238
305.241
305.282
305.241
305.163
305.25
305.213
305.156
305.15
305.11
304.978
304.919
304.883
302.906
303.008
303.047
303.046
303.148
303.147
303.125
303.181
303.156
303.092
303.169
303.203
303.138
303.109
303.109
303.127
303.036
303.091
302.964
302.938
301.09
300.977
301
301.005
301.093
301.048
301.037
301.034
301.103
301.059
301.107
301.057
301.042
301.09
301.109
301.04
301.001
301.033
301.034
300.981
315.102
315.296
315.466
315.679
315.84
315.917
316.1
316.104
316.186
316.186
316.208
316.201
316.157
316.132
315.995
315.762
315.691
315.495
315.361
315.15
313.233
313.353
313.524
313.605
313.864
313.855
314.013
314.102
314.184
314.106
314.134
314.154
314.129
314.035
313.929
313.781
313.762
313.55
313.375
313.225
311.338
311.383
311.552
311.689
311.87
311.951
312.026
312.017
312.029
312.073
312.064
312.003
311.995
311.879
311.858
311.79
311.595
311.403
311.294
311.212
309.254
309.405
309.531
309.6
309.665
309.789
309.9
309.914
309.89
309.923
309.896
309.893
309.918
309.782
309.716
309.646
309.574
309.431
309.373
309.275
307.229
307.327
307.469
307.531
307.604
307.683
307.644
307.736
307.678
307.692
307.671
307.735
307.724
307.657
307.576
307.524
307.502
307.365
307.251
307.148
305.225
305.27
305.34
305.37
305.452
305.526
305.512
305.574
305.511
305.574
305.539
305.535
305.526
305.473
305.415
305.433
305.296
305.319
305.217
305.185
303.162
303.165
303.246
303.206
303.251
303.344
303.266
303.357
303.361
303.411
303.303
303.321
303.295
303.282
303.276
303.223
303.235
303.179
303.192
303.129
301.055
301.067
301.122
301.086
301.098
301.058
301.066
301.014
301.159
301.09
301.161
301.158
301.103
301.117
301.113
301.052
301.059
301.039
301.065
301.062
316.006
316.114
316.418
316.594
316.798
316.964
317.039
317.131
317.17
317.267
317.182
317.198
317.212
317.099
317.044
316.934
316.698
316.551
316.289
316.163
313.947
314.174
314.392
314.483
314.669
314.762
314.948
314.955
314.995
315.067
315.118
315.06
315.044
314.972
314.831
314.74
314.538
314.423
314.258
314.028
311.91
312.066
312.246
312.351
312.508
312.639
312.737
312.777
312.816
312.761
312.793
312.798
312.754
312.776
312.59
312.561
312.419
312.205
312.076
311.953
309.827
309.929
310.141
310.155
310.249
310.355
310.396
310.515
310.518
310.572
310.527
310.589
310.454
310.503
310.43
310.245
310.198
310.099
309.96
309.824
307.662
307.781
307.803
307.936
308.035
308.04
308.179
308.242
308.203
308.261
308.245
308.228
308.228
308.174
308.063
308.009
307.919
307.883
307.658
307.711
305.439
305.615
305.67
305.716
305.728
305.779
305.91
305.812
305.837
305.851
305.86
305.873
305.835
305.826
305.798
305.723
305.687
305.643
305.597
305.518
303.305
303.356
303.41
303.442
303.445
303.535
303.547
303.585
303.593
303.529
303.491
303.534
303.475
303.541
303.523
303.441
303.451
303.409
303.355
303.321
301.064
301.099
301.243
301.198
301.142
301.166
301.172
301.221
301.146
301.207
301.2
301.18
301.178
301.19
301.158
301.182
301.146
301.135
301.132
301.1
316.884
317.08
317.358
317.515
317.797
318.055
318.098
318.152
318.335
318.399
318.283
318.316
318.314
318.24
318.114
317.952
317.773
317.537
317.391
317.155
314.735
314.936
315.156
315.376
315.59
315.712
315.8
315.89
316.007
316.061
315.982
316.025
315.911
315.845
315.777
315.665
315.517
315.276
315.137
314.944
312.551
312.728
312.896
313.077
313.241
313.387
313.45
313.515
313.644
313.657
313.634
313.612
313.56
313.545
313.488
313.384
313.187
313.086
312.849
312.686
310.317
310.436
310.649
310.771
310.831
310.993
311.117
311.084
311.15
311.084
311.299
311.188
311.141
311.106
311.045
310.966
310.797
310.694
310.59
310.381
308.06
308.157
308.304
308.427
308.443
308.604
308.585
308.794
308.728
308.76
308.816
308.745
308.673
308.662
308.574
308.533
308.482
308.412
308.259
308.076
305.816
305.878
305.931
305.981
306.082
306.191
306.199
306.177
306.221
306.3
306.269
306.255
306.239
306.147
306.177
306.115
306.017
305.956
305.849
305.774
303.447
303.532
303.533
303.627
303.671
303.705
303.711
303.736
303.776
303.76
303.772
303.712
303.755
303.726
303.715
303.687
303.618
303.572
303.567
303.493
301.152
301.19
301.199
301.156
301.17
301.219
301.273
301.251
301.272
301.236
301.24
301.295
301.244
301.327
301.255
301.261
301.234
301.241
301.132
301.207
317.803
318.004
318.384
318.591
318.769
319.013
319.157
319.276
319.378
319.479
319.498
319.478
319.443
319.359
319.197
319.045
318.849
318.632
318.451
318.231
315.497
315.742
316
316.245
316.467
316.63
316.718
316.834
316.915
316.91
316.979
316.993
316.964
316.864
316.717
316.622
316.516
316.266
316.018
315.86
313.214
313.447
313.714
313.862
313.974
314.211
314.235
314.247
314.405
314.44
314.532
314.431
314.401
314.259
314.174
314.071
313.963
313.812
313.575
313.529
310.876
311.122
311.215
311.373
311.529
311.639
311.805
311.738
311.808
311.884
311.935
311.881
311.808
311.789
311.694
311.64
311.519
311.322
311.228
311.091
308.537
308.568
308.737
308.879
309.015
309.063
309.18
309.246
309.187
309.272
309.24
309.304
309.223
309.174
309.103
309.137
308.924
308.862
308.729
308.606
306.065
306.18
306.258
306.358
306.443
306.555
306.519
306.592
306.637
306.617
306.666
306.627
306.635
306.575
306.557
306.392
306.422
306.305
306.269
306.157
303.685
303.687
303.794
303.806
303.841
303.967
303.918
303.961
303.938
303.991
303.916
303.953
303.901
304.004
303.919
303.944
303.856
303.826
303.8
303.766
301.203
301.247
301.238
301.231
301.368
301.268
301.402
301.328
301.402
301.26
301.353
301.365
301.333
301.299
301.349
301.325
301.295
301.285
301.24
301.191
318.682
319.029
319.323
319.533
319.804
320.056
320.248
320.432
320.485
320.53
320.551
320.553
320.542
320.454
320.338
320.154
319.947
319.674
319.434
319.181
316.258
316.535
316.823
317.056
317.289
317.517
317.625
317.774
317.862
317.895
317.904
317.948
317.846
317.906
317.762
317.583
317.349
317.198
316.916
316.669
313.896
314.078
314.343
314.517
314.76
314.884
315.043
315.033
315.239
315.277
315.263
315.278
315.272
315.203
315.007
314.914
314.759
314.61
314.438
314.239
311.39
311.633
311.78
311.942
312.121
312.261
312.358
312.441
312.546
312.567
312.577
312.561
312.483
312.482
312.484
312.256
312.134
311.929
311.832
311.67
308.938
309.146
309.215
309.342
309.404
309.538
309.6
309.628
309.774
309.818
309.821
309.759
309.736
309.706
309.656
309.584
309.45
309.302
309.205
309.071
306.345
306.417
306.587
306.692
306.8
306.834
306.839
306.931
306.921
307.002
306.996
307.024
307.014
306.982
306.918
306.85
306.733
306.732
306.627
306.537
303.798
303.915
304.028
304.043
304.108
304.128
304.138
304.15
304.141
304.172
304.299
304.225
304.176
304.199
304.123
304.158
304.133
303.98
303.99
303.982
301.265
301.318
301.301
301.35
301.405
301.424
301.374
301.403
301.354
301.4
301.444
301.365
301.388
301.456
301.374
301.365
301.369
301.374
301.319
301.324
319.486
319.823
320.245
320.61
320.837
321.011
321.304
321.434
321.543
321.565
321.599
321.639
321.6
321.574
321.439
321.19
320.939
320.755
320.472
320.16
317.072
317.372
317.577
317.941
318.195
318.371
318.511
318.712
318.8
318.847
318.896
318.845
318.834
318.803
318.637
318.54
318.287
318.083
317.859
317.611
314.533
314.781
314.999
315.211
315.432
315.665
315.709
315.958
315.963
316.042
316.086
316.098
316.039
315.97
315.918
315.733
315.54
315.381
315.149
314.958
311.966
312.114
312.443
312.601
312.713
312.878
312.921
313.045
313.101
313.214
313.239
313.232
313.167
313.073
312.956
312.888
312.821
312.61
312.403
312.293
309.271
309.512
309.66
309.83
309.928
309.99
310.168
310.173
310.271
310.308
310.252
310.327
310.249
310.252
310.193
310.064
309.997
309.768
309.721
309.626
306.755
306.809
306.876
306.99
307.046
307.19
307.235
307.276
307.354
307.349
307.465
307.325
307.418
307.372
307.357
307.2
307.026
307.025
306.934
306.854
303.987
304.109
304.204
304.189
304.286
304.32
304.388
304.451
304.45
304.416
304.407
304.444
304.431
304.476
304.409
304.287
304.297
304.221
304.182
304.207
301.339
301.363
301.433
301.432
301.448
301.458
301.45
301.463
301.456
301.547
301.51
301.48
301.45
301.52
301.449
301.4
301.487
301.386
301.368
301.375
320.384
320.729
321.058
321.463
321.725
322.015
322.281
322.469
322.593
322.7
322.756
322.735
322.669
322.633
322.507
322.237
322.031
321.759
321.454
321.122
317.819
318.083
318.416
318.849
318.979
319.227
319.396
319.606
319.712
319.749
319.779
319.829
319.781
319.72
319.557
319.367
319.185
318.965
318.711
318.479
315.23
315.444
315.687
315.927
316.183
316.398
316.546
316.714
316.77
316.83
316.795
316.873
316.778
316.781
316.634
316.479
316.367
316.099
315.9
315.684
312.433
312.774
312.953
313.075
313.338
313.479
313.597
313.73
313.838
313.793
313.805
313.813
313.811
313.741
313.663
313.536
313.385
313.269
313.082
312.885
309.769
309.8
310.115
310.276
310.367
310.417
310.604
310.734
310.742
310.753
310.784
310.829
310.773
310.689
310.602
310.552
310.434
310.39
310.101
310.06
306.95
307.098
307.228
307.218
307.421
307.489
307.525
307.623
307.682
307.71
307.717
307.772
307.758
307.687
307.635
307.576
307.524
307.413
307.266
307.192
304.26
304.184
304.336
304.372
304.447
304.547
304.624
304.549
304.718
304.679
304.691
304.652
304.643
304.639
304.617
304.532
304.483
304.494
304.446
304.289
301.404
301.405
301.456
301.44
301.457
301.507
301.528
301.55
301.586
301.534
301.532
301.67
301.621
301.564
301.559
301.472
301.524
301.577
301.491
301.448
321.233
321.628
321.943
322.3
322.704
323.009
323.358
323.479
323.581
323.719
323.81
323.823
323.751
323.634
323.457
323.299
323.065
322.779
322.441
322.199
318.496
318.836
319.24
319.482
319.78
320.045
320.266
320.509
320.633
320.645
320.679
320.693
320.725
320.605
320.459
320.303
320.159
319.823
319.561
319.313
315.8
316.064
316.372
316.592
316.852
317.117
317.235
317.311
317.55
317.606
317.656
317.642
317.674
317.512
317.417
317.255
317.078
316.846
316.622
316.474
313.065
313.197
313.392
313.676
313.895
313.992
314.167
314.308
314.421
314.434
314.46
314.497
314.508
314.369
314.349
314.189
314.077
313.881
313.646
313.467
310.116
310.356
310.48
310.575
310.804
310.934
311.049
311.118
311.219
311.283
311.315
311.358
311.327
311.208
311.198
311.13
310.932
310.81
310.669
310.571
307.217
307.442
307.591
307.678
307.777
307.873
307.926
307.924
308.076
308.166
308.11
308.055
308.106
308.056
308.034
307.923
307.845
307.795
307.605
307.494
304.331
304.465
304.52
304.617
304.58
304.827
304.77
304.793
304.837
304.841
304.874
304.893
304.838
304.896
304.755
304.769
304.666
304.617
304.644
304.523
301.44
301.503
301.491
301.584
301.612
301.575
301.66
301.637
301.527
301.592
301.712
301.6
301.585
301.61
301.617
301.579
301.608
301.546
301.62
301.577
322.096
322.429
322.92
323.274
323.637
323.986
324.208
324.509
324.647
324.681
324.695
324.817
324.735
324.617
324.484
324.294
324.1
323.743
323.376
323.092
319.266
319.609
319.994
320.353
320.64
320.875
321.126
321.377
321.433
321.619
321.633
321.635
321.593
321.499
321.327
321.183
320.985
320.727
320.326
320.1
316.421
316.67
316.892
317.292
317.544
317.796
317.96
318.112
318.311
318.326
318.399
318.43
318.373
318.239
318.196
317.932
317.852
317.577
317.377
317.111
313.523
313.71
313.907
314.263
314.468
314.651
314.754
314.919
314.992
315.046
315.11
315.067
315.123
314.985
314.896
314.806
314.663
314.456
314.168
314.034
310.553
310.677
310.86
311.166
311.273
311.384
311.602
311.621
311.723
311.768
311.743
311.788
311.771
311.775
311.627
311.588
311.514
311.307
311.047
310.985
307.598
307.623
307.747
307.867
308.088
308.15
308.234
308.275
308.366
308.46
308.434
308.383
308.417
308.369
308.376
308.206
308.172
308.137
307.958
307.781
304.557
304.587
304.629
304.815
304.824
304.901
304.949
304.993
305.083
305.078
305.046
305.097
305.081
305.048
304.972
304.956
304.914
304.859
304.807
304.79
301.519
301.521
301.586
301.57
301.626
301.726
301.768
301.648
301.772
301.684
301.686
301.764
301.766
301.699
301.664
301.686
301.548
301.594
301.658
301.641
322.865
323.287
323.716
324.105
324.534
324.869
325.134
325.424
325.543
325.671
325.721
325.736
325.716
325.69
325.571
325.264
325.037
324.751
324.304
324.001
319.957
320.337
320.758
321.123
321.452
321.697
321.92
322.155
322.284
322.363
322.513
322.513
322.444
322.352
322.199
322.034
321.747
321.551
321.212
320.945
317.046
317.198
317.625
317.979
318.145
318.45
318.724
318.805
318.958
319.078
319.08
319.122
319.112
318.993
318.864
318.628
318.539
318.292
318.036
317.819
313.895
314.126
314.452
314.722
314.989
315.211
315.389
315.49
315.517
315.651
315.747
315.725
315.666
315.586
315.528
315.318
315.217
315.05
314.758
314.626
310.898
311.121
311.278
311.539
311.692
311.858
311.986
312.088
312.145
312.171
312.239
312.22
312.295
312.176
312.033
311.95
311.873
311.744
311.56
311.382
307.824
307.951
308.092
308.281
308.342
308.49
308.518
308.601
308.71
308.76
308.838
308.697
308.775
308.701
308.675
308.574
308.559
308.369
308.198
308.157
304.699
304.82
304.895
304.989
305.058
305.115
305.102
305.173
305.26
305.273
305.247
305.283
305.275
305.169
305.196
305.168
305.074
305.018
304.949
304.91
301.44
301.622
301.563
301.608
301.677
301.717
301.632
301.726
301.778
301.748
301.814
301.761
301.782
301.782
301.781
301.749
301.695
301.709
301.691
301.613
323.638
324.014
324.461
324.969
325.368
325.734
326.046
326.302
326.455
326.576
326.705
326.753
326.659
326.56
326.393
326.16
325.921
325.591
325.167
324.886
320.598
320.977
321.292
321.826
322.117
322.447
322.706
322.902
323.15
323.189
323.294
323.309
323.25
323.235
323.019
322.871
322.565
322.279
322.023
321.596
317.51
317.8
318.234
318.549
318.829
319.029
319.27
319.468
319.648
319.701
319.844
319.752
319.793
319.672
319.589
319.43
319.149
318.922
318.632
318.465
314.408
314.63
314.921
315.236
315.519
315.639
315.922
316.034
316.133
316.2
316.232
316.319
316.246
316.141
316.037
315.878
315.76
315.607
315.28
315.08
311.234
311.484
311.637
311.847
312.024
312.179
312.447
312.518
312.634
312.629
312.695
312.708
312.666
312.634
312.587
312.42
312.227
312.1
311.914
311.801
308.094
308.179
308.326
308.547
308.651
308.749
308.864
309.032
309.006
309.109
309.075
309.097
308.962
308.974
308.979
308.904
308.836
308.747
308.558
308.453
304.882
304.86
304.975
305.174
305.213
305.314
305.356
305.45
305.401
305.437
305.419
305.494
305.38
305.455
305.433
305.392
305.276
305.229
305.14
305.076
301.684
301.565
301.682
301.739
301.74
301.765
301.853
301.853
301.824
301.836
301.806
301.86
301.855
301.868
301.822
301.786
301.794
301.71
301.732
301.706
324.295
324.674
325.23
325.771
326.152
326.541
326.824
327.194
327.36
327.527
327.597
327.618
327.601
327.48
327.26
327.113
326.717
326.454
326.043
325.656
321.15
321.601
322.032
322.439
322.793
323.202
323.402
323.69
323.887
323.992
324.061
324.129
323.974
323.952
323.764
323.55
323.356
323.059
322.726
322.381
318.128
318.368
318.711
319.097
319.332
319.731
319.897
320.142
320.284
320.384
320.467
320.554
320.451
320.339
320.168
320.059
319.832
319.527
319.271
319.052
314.886
315.125
315.395
315.663
316.001
316.165
316.341
316.547
316.752
316.745
316.772
316.844
316.751
316.684
316.717
316.479
316.331
315.978
315.82
315.58
311.594
311.843
312.009
312.228
312.442
312.659
312.777
312.928
312.98
313.075
313.133
313.128
313.036
313.085
312.952
312.822
312.702
312.506
312.327
312.163
308.299
308.474
308.701
308.749
308.887
309.057
309.219
309.199
309.344
309.338
309.423
309.374
309.298
309.289
309.352
309.166
309.11
308.965
308.845
308.742
304.944
305.05
305.189
305.28
305.375
305.426
305.484
305.509
305.628
305.589
305.712
305.635
305.695
305.687
305.579
305.515
305.439
305.441
305.332
305.282
301.706
301.711
301.787
301.76
301.808
301.79
301.88
301.813
301.896
301.806
301.923
301.901
301.874
301.823
301.863
301.853
301.856
301.843
301.871
301.742
324.976
325.4
325.999
326.459
326.892
327.309
327.629
327.968
328.204
328.325
328.49
328.494
328.433
328.402
328.12
327.921
327.626
327.31
326.798
326.401
321.744
322.151
322.677
323.1
323.45
323.83
324.078
324.415
324.597
324.755
324.876
324.795
324.792
324.674
324.581
324.318
324.082
323.736
323.303
323.021
318.489
318.883
319.299
319.637
320.018
320.247
320.49
320.741
320.903
320.983
321.044
321.037
321.069
320.977
320.868
320.687
320.432
320.148
319.893
319.552
315.234
315.524
315.913
316.13
316.423
316.677
316.859
317.132
317.147
317.248
317.283
317.293
317.275
317.192
317.087
316.991
316.771
316.507
316.308
316.114
311.872
312.113
312.366
312.58
312.811
313.033
313.12
313.27
313.413
313.433
313.564
313.515
313.452
313.368
313.346
313.203
313.073
312.868
312.745
312.548
308.521
308.672
308.84
308.997
309.183
309.25
309.408
309.456
309.57
309.569
309.693
309.677
309.628
309.629
309.536
309.48
309.318
309.184
309.101
308.969
305.104
305.231
305.322
305.498
305.516
305.641
305.662
305.767
305.796
305.784
305.798
305.759
305.832
305.772
305.754
305.729
305.617
305.557
305.442
305.353
301.715
301.809
301.766
301.834
301.82
301.9
301.869
301.948
301.979
301.96
301.96
301.959
301.946
301.906
301.871
301.961
301.844
301.867
301.889
301.782
325.527
326.025
326.604
327.119
327.586
328.024
328.357
328.651
328.947
329.122
329.189
329.251
329.261
329.066
328.878
328.715
328.373
327.995
327.533
327.172
322.328
322.719
323.243
323.709
324.084
324.445
324.768
324.977
325.237
325.443
325.469
325.455
325.429
325.309
325.181
324.975
324.742
324.346
323.923
323.719
318.974
319.322
319.752
320.127
320.444
320.819
321.05
321.27
321.44
321.542
321.609
321.673
321.658
321.529
321.431
321.276
320.932
320.638
320.412
320.089
315.619
315.967
316.235
316.591
316.84
317.13
317.318
317.457
317.637
317.721
317.789
317.75
317.803
317.697
317.621
317.422
317.268
316.984
316.746
316.501
312.14
312.344
312.647
312.991
313.033
313.327
313.483
313.687
313.735
313.877
313.883
313.9
313.874
313.815
313.641
313.677
313.411
313.239
312.949
312.859
308.686
308.851
309.104
309.233
309.38
309.581
309.75
309.689
309.785
309.916
309.927
309.931
309.914
309.916
309.849
309.76
309.608
309.476
309.295
309.22
305.258
305.331
305.426
305.574
305.697
305.724
305.765
305.901
305.932
305.95
305.974
305.991
305.95
305.923
305.957
305.941
305.724
305.712
305.626
305.542
301.817
301.798
301.782
301.89
301.887
301.908
301.949
301.939
301.963
301.95
301.988
302.015
302.055
301.932
302.016
302.017
301.86
301.956
301.879
301.915
326.09
326.552
327.26
327.76
328.334
328.728
329.042
329.382
329.588
329.837
329.923
329.965
329.91
329.799
329.651
329.4
329.176
328.704
328.326
327.809
322.758
323.233
323.707
324.201
324.64
324.98
325.411
325.568
325.859
325.984
326.116
326.132
326.131
326
325.832
325.638
325.315
325.016
324.556
324.235
319.372
319.72
320.21
320.536
320.891
321.253
321.578
321.751
321.903
322.082
322.093
322.195
322.244
322.104
321.936
321.75
321.48
321.201
320.888
320.595
315.902
316.261
316.58
316.941
317.213
317.463
317.686
317.863
318.044
318.149
318.165
318.239
318.19
318.123
318.027
317.832
317.684
317.351
317.17
316.894
312.423
312.678
312.913
313.188
313.422
313.643
313.813
313.902
314.082
314.119
314.155
314.199
314.25
314.141
314.079
313.911
313.771
313.641
313.363
313.169
308.912
309.115
309.33
309.418
309.64
309.797
309.92
309.983
310.059
310.088
310.201
310.236
310.165
310.095
310.083
309.984
309.802
309.739
309.562
309.431
305.299
305.475
305.554
305.598
305.759
305.9
305.969
306.009
306.007
306.06
306.08
306.189
306.103
306.137
306.028
306.033
305.975
305.829
305.758
305.672
301.772
301.886
301.899
301.901
301.941
301.995
301.94
301.969
302.005
302.069
302.076
302.06
302.086
302.068
301.974
301.965
302.035
301.944
301.904
301.923
326.596
327.071
327.712
328.239
328.857
329.35
329.653
329.968
330.248
330.407
330.503
330.522
330.609
330.51
330.284
329.964
329.674
329.306
328.82
328.404
323.24
323.655
324.15
324.588
325.127
325.528
325.864
326.084
326.358
326.563
326.584
326.691
326.647
326.552
326.361
326.125
325.92
325.523
325.147
324.718
319.708
320.072
320.516
320.992
321.415
321.773
321.969
322.238
322.395
322.564
322.665
322.655
322.652
322.536
322.467
322.23
321.961
321.582
321.326
321.007
316.228
316.51
316.891
317.29
317.555
317.786
318.145
318.268
318.444
318.512
318.573
318.621
318.58
318.487
318.402
318.24
318.043
317.828
317.548
317.249
312.67
312.944
313.196
313.41
313.695
313.919
314.085
314.252
314.356
314.472
314.505
314.495
314.54
314.503
314.298
314.284
314.045
313.847
313.651
313.446
309.096
309.255
309.437
309.617
309.838
309.955
310.105
310.181
310.286
310.348
310.397
310.432
310.375
310.393
310.249
310.186
310.013
309.989
309.816
309.625
305.432
305.568
305.68
305.82
305.919
305.963
306.092
306.124
306.267
306.155
306.286
306.262
306.212
306.233
306.17
306.132
306.032
305.986
305.848
305.859
301.877
301.89
301.92
301.947
301.998
301.979
302.035
302.125
302.062
302.061
302.015
302.13
302.064
302.082
302.043
302.026
302.061
302.016
302.018
301.868
326.974
327.532
328.16
328.787
329.276
329.837
330.203
330.471
330.771
330.913
331.058
331.147
331.134
331.026
330.776
330.568
330.163
329.763
329.344
328.928
323.549
324.044
324.549
325.026
325.597
325.903
326.313
326.582
326.73
327.013
327.056
327.164
327.1
327.083
326.809
326.588
326.297
325.924
325.486
325.19
320.072
320.43
320.846
321.304
321.658
322.001
322.276
322.566
322.808
322.995
322.961
323.024
323.058
322.971
322.786
322.68
322.356
321.978
321.647
321.37
316.502
316.814
317.206
317.445
317.736
318.133
318.335
318.524
318.674
318.857
318.889
318.883
318.86
318.807
318.64
318.514
318.331
318.06
317.769
317.564
312.798
313.052
313.368
313.624
313.913
314.127
314.305
314.411
314.629
314.72
314.69
314.793
314.8
314.668
314.587
314.481
314.342
314.105
313.889
313.599
309.186
309.367
309.57
309.788
310.034
310.125
310.237
310.375
310.448
310.474
310.515
310.538
310.588
310.56
310.508
310.36
310.233
310.108
309.949
309.788
305.564
305.647
305.761
305.87
306
306.133
306.185
306.174
306.275
306.215
306.32
306.284
306.358
306.343
306.261
306.201
306.171
306.045
305.992
305.936
301.964
301.905
301.899
302.004
302.042
302.079
302.05
302.09
302.138
302.136
302.166
302.146
302.137
302.101
302.078
302.119
302.049
302.054
302.012
301.97
327.27
327.878
328.489
329.061
329.598
330.083
330.479
330.805
331.128
331.337
331.432
331.454
331.456
331.376
331.19
330.885
330.578
330.085
329.634
329.162
323.835
324.215
324.818
325.384
325.817
326.28
326.542
326.849
327.122
327.279
327.313
327.33
327.396
327.288
327.127
326.933
326.568
326.169
325.798
325.459
320.214
320.589
321.099
321.558
321.919
322.269
322.526
322.805
323.074
323.122
323.284
323.255
323.253
323.138
323.086
322.856
322.529
322.28
321.873
321.651
316.717
316.899
317.306
317.664
318.04
318.311
318.58
318.695
318.872
319.02
319.054
319.119
319.079
319.046
318.792
318.805
318.589
318.279
318.015
317.776
312.971
313.238
313.516
313.797
314.021
314.26
314.478
314.569
314.696
314.787
314.889
314.972
314.837
314.839
314.759
314.643
314.402
314.234
314.052
313.79
309.265
309.496
309.681
309.876
310.019
310.167
310.335
310.508
310.576
310.659
310.607
310.681
310.649
310.584
310.529
310.45
310.286
310.179
309.993
309.968
305.615
305.696
305.787
305.921
306.045
306.112
306.181
306.353
306.319
306.364
306.367
306.455
306.403
306.408
306.306
306.256
306.121
306.132
306.007
305.947
301.876
301.931
301.91
302.076
301.956
302.049
302.118
302.076
302.146
302.099
302.18
302.166
302.094
302.179
302.114
302.062
302.069
302.018
301.963
302.024
)
;

boundaryField
{
    hotSide
    {
        type            fixedGradient;
        gradient        nonuniform List<scalar> 
400
(
321.511
322.87
325.591
329.677
335.133
341.965
350.181
359.788
370.794
383.208
397.037
412.289
428.971
447.088
466.647
487.651
510.105
534.011
559.372
586.191
323.738
325.08
327.767
331.802
337.194
343.949
352.078
361.591
372.498
384.81
398.537
413.687
430.268
448.289
467.755
488.672
511.043
534.872
560.161
586.913
326.149
327.47
330.116
334.091
339.406
346.071
354.099
363.503
374.296
386.491
400.101
415.136
431.606
449.52
468.885
489.706
511.988
535.735
560.948
587.63
328.704
330
332.597
336.503
341.73
348.292
356.205
365.485
376.15
388.215
401.695
416.604
432.954
450.753
470.009
490.73
512.919
536.579
561.714
588.325
331.33
332.599
335.142
338.97
344.099
350.546
358.332
367.477
378.003
389.928
403.271
418.047
434.27
451.949
471.095
491.712
513.807
537.382
562.439
588.978
333.918
335.158
337.643
341.389
346.414
352.74
360.392
369.397
379.779
391.562
404.765
419.407
435.503
453.065
472.101
492.618
514.622
538.114
563.096
589.569
336.321
337.531
339.959
343.622
348.544
354.751
362.274
371.142
381.385
393.031
406.101
420.618
436.595
454.047
472.983
493.409
515.33
538.747
563.663
590.076
338.36
339.543
341.92
345.509
350.339
356.44
363.847
372.595
382.718
394.244
407.2
421.608
437.485
454.844
473.695
494.045
515.897
539.253
564.114
590.478
339.852
341.015
343.352
346.885
351.645
357.665
364.985
373.643
383.675
395.113
407.984
422.312
438.116
455.407
474.197
494.491
516.294
539.606
564.428
590.758
340.643
341.795
344.11
347.613
352.334
358.311
365.584
374.193
384.176
395.567
408.393
422.679
438.443
455.699
474.456
494.722
516.498
539.788
564.589
590.901
340.643
341.795
344.11
347.613
352.334
358.311
365.584
374.193
384.176
395.567
408.393
422.679
438.443
455.699
474.456
494.722
516.498
539.788
564.589
590.901
339.852
341.015
343.352
346.885
351.645
357.665
364.985
373.643
383.675
395.113
407.984
422.312
438.116
455.407
474.197
494.491
516.294
539.606
564.428
590.758
338.36
339.543
341.92
345.509
350.339
356.44
363.847
372.595
382.718
394.244
407.2
421.608
437.485
454.844
473.695
494.045
515.897
539.253
564.114
590.478
336.321
337.531
339.959
343.622
348.544
354.751
362.274
371.142
381.385
393.031
406.101
420.618
436.595
454.047
472.983
493.409
515.33
538.747
563.663
590.076
333.918
335.158
337.643
341.389
346.414
352.74
360.392
369.397
379.779
391.562
404.765
419.407
435.503
453.065
472.101
492.618
514.622
538.114
563.096
589.569
331.33
332.599
335.142
338.97
344.099
350.546
358.332
367.477
378.003
389.928
403.271
418.047
434.27
451.949
471.095
491.712
513.807
537.382
562.439
588.978
328.704
330
332.597
336.503
341.73
348.292
356.205
365.485
376.15
388.215
401.695
416.604
432.954
450.753
470.009
490.73
512.919
536.579
561.714
588.325
326.149
327.47
330.116
334.091
339.406
346.071
354.099
363.503
374.296
386.491
400.101
415.136
431.606
449.52
468.885
489.706
511.988
535.735
560.948
587.63
323.738
325.08
327.767
331.802
337.194
343.949
352.078
361.591
372.498
384.81
398.537
413.687
430.268
448.289
467.755
488.672
511.043
534.872
560.161
586.913
321.511
322.87
325.591
329.677
335.133
341.965
350.181
359.788
370.794
383.208
397.037
412.289
428.971
447.088
466.647
487.651
510.105
534.011
559.372
586.191
)
;
    }
    coldSide
    {
        type            mixed;
        refValue        uniform 300;
        refGradient     uniform 0;
        valueFraction   uniform 0.991591;
        source          uniform 0;
        value           nonuniform List<scalar> 
400
(
300.008
300.009
300.009
300.009
300.01
300.01
300.011
300.011
300.012
300.012
300.013
300.012
300.014
300.014
300.014
300.015
300.015
300.016
300.017
300.016
300.008
300.008
300.009
300.009
300.01
300.01
300.011
300.011
300.012
300.013
300.013
300.014
300.013
300.014
300.015
300.015
300.016
300.016
300.016
300.016
300.008
300.008
300.009
300.01