/*--------------------------------*- C++ -*----------------------------------*\
| =========                 |                                                 |
| \\      /  F ield         | OpenFOAM: The Open Source CFD Toolbox           |
|  \\    /   O peration     | Version:  2212                                  |
|   \\  /    A nd           | Website:  www.openfoam.com                      |
|    \\/     M anipulation  |                                                 |
\*---------------------------------------------------------------------------*/
FoamFile
{
    version     2.0;
    format      ascii;
    arch        "LSB;label=32;scalar=64";
    class       volScalarField;
    location    "0";
    object      T;
}
// * * * * * * * * * * * * * * * * * * * * * * * * * * * * * * * * * * * * * //

dimensions      [0 0 0 1 0 0 0];

internalField   nonuniform List<scalar> 
3200
(
342.714
341.29
340.21
339.932
340.149
340.926
341.712
342.373
343.148
343.862
344.064
344.282
344.132
343.957
343.574
343.344
343.497
344.054
345.342
346.903
337.132
335.953
335.007
334.768
334.97
335.63
336.29
336.84
337.49
338.106
338.301
338.421
338.31
338.141
337.77
337.575
337.713
338.184
339.273
340.548
331.501
330.541
329.746
329.537
329.683
330.256
330.804
331.278
331.79
332.31
332.471
332.545
332.462
332.298
331.958
331.801
331.916
332.306
333.215
334.231
325.82
325.054
324.446
324.26
324.348
324.818
325.277
325.67
326.05
326.451
326.609
326.65
326.594
326.437
326.157
326.011
326.126
326.434
327.177
327.955
320.117
319.528
319.089
318.917
318.979
319.333
319.704
320.019
320.288
320.587
320.713
320.733
320.699
320.571
320.342
320.228
320.34
320.553
321.118
321.718
314.383
313.976
313.691
313.559
313.562
313.841
314.099
314.331
314.512
314.729
314.793
314.818
314.801
314.727
314.532
314.436
314.528
314.691
315.08
315.485
308.637
308.408
308.276
308.178
308.14
308.338
308.472
308.611
308.721
308.85
308.897
308.907
308.89
308.861
308.713
308.675
308.719
308.816
309.059
309.276
302.899
302.815
302.78
302.744
302.732
302.794
302.838
302.891
302.921
302.975
302.985
302.982
302.983
302.982
302.912
302.898
302.918
302.96
303.032
303.111
343.046
341.659
340.641
340.387
340.67
341.409
342.212
343.083
343.78
344.483
344.966
344.975
344.839
344.561
344.187
344.019
343.952
344.554
345.753
347.336
337.406
336.256
335.368
335.19
335.404
336.041
336.683
337.414
338.022
338.594
339.017
339.012
338.871
338.645
338.309
338.17
338.095
338.618
339.658
340.938
331.717
330.761
330.052
329.878
330.069
330.589
331.119
331.717
332.235
332.707
333.058
333.036
332.917
332.712
332.414
332.282
332.211
332.665
333.558
334.572
326.005
325.244
324.683
324.511
324.653
325.097
325.52
325.998
326.385
326.797
327.092
327.053
326.96
326.762
326.527
326.402
326.33
326.738
327.449
328.256
320.243
319.68
319.273
319.14
319.216
319.569
319.871
320.271
320.532
320.851
321.114
321.067
321.003
320.827
320.616
320.512
320.455
320.802
321.35
321.938
314.486
314.093
313.825
313.734
313.74
314.003
314.18
314.501
314.666
314.904
315.107
315.075
315.012
314.894
314.71
314.655
314.612
314.854
315.259
315.652
308.718
308.482
308.322
308.253
308.248
308.433
308.51
308.722
308.793
308.953
309.088
309.057
309.027
308.949
308.822
308.803
308.788
308.899
309.166
309.396
302.926
302.84
302.793
302.759
302.764
302.83
302.853
302.93
302.942
302.993
303.055
303.028
303.032
303.003
302.955
302.941
302.936
302.974
303.076
303.162
343.695
342.289
341.318
341.181
341.333
342.097
343.012
344.019
344.897
345.652
345.993
346.177
345.896
345.588
345.148
344.98
344.847
345.372
346.494
347.994
337.949
336.811
335.981
335.81
335.966
336.596
337.371
338.228
338.982
339.629
339.888
340.062
339.802
339.522
339.131
338.974
338.877
339.32
340.273
341.537
332.179
331.256
330.57
330.389
330.514
331.048
331.669
332.408
333.019
333.563
333.769
333.91
333.7
333.46
333.118
332.991
332.889
333.253
334.048
335.089
326.382
325.634
325.119
324.927
325.028
325.449
325.958
326.556
327.028
327.487
327.668
327.765
327.578
327.376
327.104
327.034
326.905
327.218
327.845
328.667
320.558
319.983
319.622
319.454
319.512
319.839
320.225
320.679
321.047
321.366
321.562
321.628
321.46
321.291
321.083
321.062
320.924
321.17
321.636
322.26
314.698
314.305
314.079
313.938
313.963
314.181
314.468
314.794
315.052
315.281
315.437
315.463
315.347
315.2
315.054
315.07
314.935
315.107
315.447
315.9
308.853
308.593
308.5
308.393
308.396
308.511
308.689
308.906
309.052
309.189
309.276
309.29
309.214
309.133
309.046
309.069
308.954
309.073
309.286
309.53
302.971
302.885
302.862
302.812
302.816
302.853
302.908
302.987
303.035
303.086
303.11
303.11
303.082
303.059
303.03
303.037
303.002
303.036
303.114
303.191
344.767
343.412
342.347
342.051
342.521
343.18
344.195
345.121
346.161
346.859
347.28
347.531
347.279
346.897
346.449
346.163
345.984
346.471
347.579
349.011
338.879
337.779
336.875
336.569
336.973
337.543
338.396
339.15
340.068
340.659
341.014
341.234
340.997
340.65
340.251
340.038
339.882
340.26
341.204
342.396
332.959
332.072
331.323
331.053
331.346
331.862
332.556
333.149
333.961
334.442
334.732
334.916
334.713
334.397
334.049
333.9
333.777
334.054
334.831
335.805
327.017
326.334
325.732
325.485
325.713
326.132
326.701
327.146
327.828
328.179
328.439
328.59
328.416
328.141
327.869
327.768
327.655
327.858
328.473
329.231
321.048
320.534
320.067
319.872
320.025
320.369
320.79
321.123
321.666
321.934
322.154
322.262
322.096
321.888
321.675
321.621
321.52
321.669
322.122
322.682
315.054
314.692
314.375
314.224
314.319
314.578
314.846
315.098
315.502
315.685
315.853
315.917
315.781
315.663
315.496
315.468
315.379
315.502
315.789
316.159
309.031
308.833
308.664
308.56
308.604
308.787
308.917
309.075
309.333
309.426
309.522
309.576
309.473
309.393
309.313
309.299
309.229
309.324
309.458
309.67
303.032
302.956
302.916
302.869
302.884
302.948
302.999
303.046
303.127
303.157
303.193
303.215
303.17
303.143
303.122
303.124
303.101
303.123
303.165
303.234
346.062
344.784
343.827
343.525
343.839
344.628
345.475
346.439
347.531
348.362
348.688
348.997
348.843
348.41
347.888
347.446
347.413
347.877
348.971
350.241
340.003
338.95
338.131
337.868
338.122
338.787
339.503
340.301
341.253
341.928
342.207
342.473
342.348
341.967
341.502
341.131
341.103
341.507
342.409
343.444
333.906
333.059
332.362
332.125
332.332
332.899
333.507
334.126
334.968
335.483
335.71
335.924
335.84
335.536
335.116
334.808
334.79
335.129
335.857
336.693
327.782
327.125
326.548
326.342
326.503
326.962
327.472
327.945
328.624
329.054
329.219
329.394
329.331
329.115
328.746
328.478
328.494
328.762
329.304
329.948
321.644
321.152
320.704
320.53
320.659
320.989
321.39
321.754
322.296
322.62
322.744
322.841
322.821
322.667
322.359
322.17
322.183
322.39
322.78
323.252
315.479
315.136
314.825
314.682
314.777
315.011
315.293
315.545
315.928
316.178
316.247
316.305
316.32
316.2
315.974
315.832
315.849
316.002
316.272
316.593
309.314
309.086
308.911
308.83
308.87
309.048
309.167
309.329
309.59
309.736
309.742
309.79
309.801
309.759
309.587
309.517
309.532
309.61
309.765
309.95
303.119
303.045
302.985
302.961
302.979
303.035
303.062
303.129
303.219
303.258
303.265
303.288
303.286
303.275
303.217
303.197
303.201
303.212
303.275
303.331
347.583
346.358
345.391
345.238
345.337
346.293
347.145
348.072
349.14
350.001
350.393
350.592
350.439
350.094
349.521
349.077
349.004
349.408
350.579
351.796
341.329
340.304
339.46
339.317
339.384
340.222
340.946
341.718
342.598
343.368
343.709
343.871
343.692
343.404
342.895
342.538
342.47
342.814
343.808
344.794
335.037
334.212
333.488
333.36
333.416
334.093
334.697
335.33
336.064
336.712
337.003
337.135
336.981
336.727
336.27
336.007
335.939
336.224
337.039
337.821
328.694
328.055
327.472
327.36
327.417
327.944
328.456
328.917
329.514
330.042
330.272
330.397
330.286
330.057
329.654
329.478
329.413
329.643
330.271
330.899
322.332
321.866
321.414
321.302
321.386
321.768
322.147
322.508
322.975
323.363
323.543
323.653
323.578
323.397
323.087
322.928
322.885
323.047
323.514
324.017
315.951
315.638
315.325
315.23
315.316
315.585
315.827
316.084
316.45
316.7
316.81
316.902
316.859
316.742
316.509
316.392
316.357
316.469
316.779
317.148
309.566
309.404
309.205
309.155
309.218
309.371
309.503
309.664
309.888
310.028
310.088
310.158
310.13
310.052
309.934
309.838
309.835
309.894
310.063
310.289
303.207
303.159
303.086
303.061
303.093
303.146
303.18
303.244
303.317
303.352
303.383
303.402
303.397
303.375
303.33
303.299
303.287
303.327
303.367
303.451
349.304
347.997
347.202
347.011
347.257
347.98
348.915
349.766
350.894
351.683
352.236
352.362
352.219
351.914
351.266
350.81
350.819
351.401
352.322
353.511
342.785
341.726
341.024
340.857
341.044
341.686
342.464
343.178
344.13
344.834
345.295
345.398
345.258
344.978
344.422
344.026
344.017
344.532
345.315
346.286
336.237
335.419
334.793
334.649
334.804
335.329
336.002
336.584
337.341
337.984
338.359
338.432
338.3
338.05
337.59
337.253
337.228
337.676
338.323
339.087
329.679
329.059
328.508
328.404
328.53
328.942
329.516
329.944
330.565
331.088
331.397
331.435
331.358
331.123
330.752
330.497
330.449
330.807
331.327
331.91
323.11
322.647
322.196
322.12
322.238
322.537
322.992
323.313
323.799
324.183
324.446
324.452
324.43
324.192
323.92
323.737
323.664
323.954
324.369
324.783
316.513
316.204
315.873
315.83
315.906
316.132
316.432
316.664
317.025
317.268
317.461
317.474
317.469
317.26
317.072
316.941
316.91
317.105
317.429
317.691
309.916
309.743
309.525
309.527
309.558
309.699
309.881
310.012
310.232
310.353
310.497
310.508
310.497
310.359
310.234
310.171
310.159
310.275
310.47
310.628
303.322
303.267
303.2
303.2
303.202
303.248
303.313
303.352
303.422
303.474
303.519
303.522
303.527
303.476
303.425
303.407
303.395
303.44
303.516
303.559
351.191
349.949
349.107
348.92
349.206
349.813
350.735
351.679
352.643
353.608
354.191
354.245
354.085
353.776
353.107
352.882
352.803
353.304
354.201
355.338
344.42
343.393
342.648
342.514
342.757
343.262
344.048
344.815
345.648
346.468
346.975
347.006
346.872
346.619
345.994
345.817
345.734
346.165
346.921
347.864
337.626
336.801
336.169
336.047
336.259
336.659
337.32
337.945
338.637
339.347
339.75
339.77
339.666
339.429
338.896
338.766
338.692
339.034
339.653
340.443
330.808
330.168
329.643
329.543
329.712
330.032
330.588
331.053
331.622
332.215
332.514
332.545
332.466
332.259
331.841
331.704
331.664
331.919
332.414
333.072
323.99
323.517
323.098
322.999
323.148
323.401
323.816
324.163
324.613
325.063
325.286
325.31
325.267
325.077
324.752
324.647
324.649
324.828
325.21
325.726
317.151
316.844
316.512
316.457
316.559
316.745
317.026
317.276
317.618
317.906
318.056
318.094
318.068
317.909
317.672
317.603
317.606
317.728
318.014
318.399
310.328
310.137
309.943
309.912
309.947
310.058
310.227
310.372
310.586
310.767
310.842
310.865
310.862
310.762
310.603
310.55
310.559
310.639
310.811
311.051
303.462
303.399
303.344
303.329
303.34
303.358
303.435
303.473
303.542
303.599
303.635
303.631
303.641
303.615
303.555
303.534
303.549
303.566
303.614
303.704
353.36
352.233
351.364
351.097
351.29
351.799
352.62
353.568
354.559
355.478
356.142
356.097
355.985
355.709
355.18
354.905
354.911
355.388
356.2
357.401
346.307
345.353
344.602
344.371
344.539
344.953
345.644
346.442
347.322
348.107
348.685
348.593
348.52
348.251
347.779
347.563
347.57
347.956
348.632
349.65
339.224
338.473
337.8
337.607
337.751
338.069
338.646
339.306
340.063
340.718
341.2
341.11
341.05
340.803
340.37
340.223
340.261
340.555
341.102
341.93
332.119
331.562
330.972
330.818
330.919
331.175
331.628
332.174
332.79
333.356
333.701
333.672
333.587
333.36
333.005
332.906
332.929
333.171
333.583
334.252
324.996
324.595
324.105
324.023
324.069
324.261
324.608
325.057
325.509
325.962
326.207
326.211
326.124
325.946
325.654
325.594
325.621
325.795
326.097
326.619
317.872
317.587
317.225
317.189
317.2
317.349
317.591
317.922
318.259
318.567
318.72
318.721
318.66
318.538
318.313
318.302
318.311
318.428
318.629
319.017
310.736
310.561
310.339
310.326
310.346
310.427
310.57
310.778
310.988
311.162
311.263
311.258
311.222
311.133
310.993
310.997
310.997
311.076
311.174
311.427
303.596
303.54
303.461
303.456
303.462
303.486
303.545
303.604
303.693
303.739
303.78
303.763
303.757
303.736
303.672
303.687
303.695
303.707
303.74
303.832
355.464
354.409
353.582
353.249
353.31
353.885
354.609
355.535
356.459
357.243
357.874
358.1
357.95
357.483
357.171
356.911
356.981
357.515
358.337
359.605
348.121
347.251
346.511
346.236
346.302
346.757
347.381
348.164
348.937
349.625
350.144
350.334
350.206
349.786
349.525
349.3
349.342
349.81
350.508
351.589
340.756
340.083
339.425
339.193
339.255
339.617
340.119
340.799
341.393
341.997
342.419
342.587
342.479
342.102
341.885
341.704
341.734
342.125
342.701
343.59
333.395
332.874
332.313
332.117
332.157
332.464
332.861
333.418
333.866
334.393
334.705
334.849
334.762
334.419
334.241
334.104
334.149
334.451
334.932
335.626
326.004
325.614
325.162
325.009
325.035
325.28
325.592
326.005
326.356
326.764
326.985
327.114
327.073
326.759
326.625
326.525
326.551
326.791
327.162
327.674
318.592
318.306
317.987
317.88
317.903
318.084
318.287
318.595
318.856
319.131
319.295
319.371
319.351
319.117
319.016
318.94
318.98
319.138
319.401
319.775
311.18
310.984
310.803
310.756
310.756
310.849
310.984
311.161
311.322
311.499
311.602
311.609
311.612
311.482
311.413
311.358
311.405
311.486
311.647
311.873
303.756
303.682
303.625
303.601
303.603
303.64
303.687
303.735
303.788
303.858
303.892
303.897
303.886
303.856
303.825
303.803
303.823
303.85
303.903
303.989
357.71
356.727
355.693
355.354
355.452
356.016
356.688
357.485
358.384
359.107
359.64
359.865
359.651
359.549
359.105
358.99
359.133
359.6
360.57
361.666
350.066
349.244
348.344
348.033
348.104
348.605
349.154
349.849
350.593
351.229
351.647
351.855
351.664
351.561
351.2
351.101
351.214
351.598
352.417
353.358
342.401
341.731
340.929
340.663
340.753
341.186
341.623
342.206
342.805
343.348
343.695
343.895
343.705
343.61
343.307
343.237
343.314
343.598
344.305
345.104
334.725
334.173
333.528
333.313
333.383
333.728
334.064
334.548
335.021
335.475
335.763
335.923
335.758
335.658
335.418
335.356
335.421
335.642
336.201
336.871
327.011
326.608
326.103
325.929
325.974
326.249
326.514
326.902
327.247
327.614
327.81
327.942
327.831
327.714
327.545
327.498
327.53
327.718
328.13
328.636
319.317
319.025
318.652
318.546
318.572
318.775
318.948
319.249
319.464
319.742
319.871
319.969
319.899
319.787
319.695
319.653
319.686
319.83
320.079
320.449
311.615
311.435
311.202
311.162
311.158
311.288
311.372
311.58
311.704
311.856
311.95
311.992
311.964
311.89
311.84
311.814
311.837
311.928
312.061
312.272
303.893
303.829
303.758
303.754
303.74
303.786
303.805
303.884
303.929
303.973
304.002
304.02
304.013
303.986
303.976
303.963
303.975
304.004
304.053
304.113
360.018
358.893
358.005
357.611
357.545
358.11
358.698
359.342
360.301
361.062
361.48
361.706
361.57
361.379
361.101
361.197
361.401
361.755
362.745
363.734
352.037
351.097
350.324
349.988
349.908
350.391
350.923
351.449
352.275
352.911
353.285
353.471
353.326
353.179
352.915
353.006
353.194
353.441
354.321
355.135
344.052
343.286
342.605
342.345
342.255
342.679
343.142
343.552
344.26
344.757
345.081
345.224
345.098
344.98
344.748
344.82
344.975
345.166
345.912
346.593
336.07
335.463
334.879
334.683
334.61
334.946
335.305
335.661
336.219
336.608
336.849
336.984
336.913
336.789
336.599
336.646
336.774
336.903
337.545
338.076
328.062
327.599
327.142
327.001
326.974
327.19
327.452
327.762
328.173
328.477
328.649
328.752
328.708
328.611
328.449
328.504
328.595
328.661
329.183
329.595
320.055
319.739
319.408
319.316
319.286
319.438
319.632
319.845
320.114
320.334
320.466
320.539
320.506
320.442
320.304
320.369
320.427
320.464
320.846
321.13
312.036
311.876
311.661
311.609
311.577
311.674
311.794
311.923
312.09
312.219
312.286
312.341
312.304
312.277
312.178
312.232
312.268
312.298
312.518
312.705
304.036
303.976
303.908
303.892
303.879
303.925
303.96
304.002
304.052
304.102
304.123
304.133
304.12
304.117
304.071
304.096
304.109
304.13
304.201
304.26
362.224
361.235
360.449
359.976
359.836
360.204
360.845
361.405
362.121
362.9
363.323
363.468
363.47
363.332
363.047
363.135
363.42
363.853
364.979
365.936
353.95
353.116
352.444
352.025
351.891
352.201
352.766
353.236
353.848
354.505
354.87
354.971
354.965
354.857
354.606
354.682
354.922
355.32
356.268
357.044
345.644
344.977
344.399
344.048
343.961
344.185
344.67
345.036
345.558
346.109
346.409
346.476
346.458
346.376
346.168
346.225
346.448
346.798
347.578
348.19
337.334
336.847
336.332
336.051
336.007
336.173
336.569
336.843
337.262
337.717
337.947
338.013
337.988
337.908
337.747
337.776
337.997
338.282
338.921
339.394
329.032
328.679
328.263
328.07
328.012
328.15
328.445
328.669
328.98
329.315
329.522
329.567
329.527
329.467
329.341
329.372
329.542
329.786
330.253
330.634
320.748
320.497
320.202
320.085
319.998
320.14
320.325
320.466
320.703
320.952
321.096
321.115
321.085
321.042
320.955
320.982
321.122
321.297
321.612
321.886
312.458
312.324
312.132
312.068
311.994
312.109
312.202
312.296
312.434
312.568
312.67
312.676
312.665
312.629
312.578
312.595
312.685
312.799
312.974
313.153
304.167
304.137
304.064
304.042
304.013
304.058
304.089
304.124
304.165
304.194
304.251
304.239
304.253
304.217
304.207
304.207
304.26
304.293
304.354
304.413
364.632
363.541
362.829
362.405
362.232
362.359
362.906
363.418
364.074
364.6
365.129
365.256
365.38
365.281
365.211
365.076
365.588
366.061
367.124
368.079
356.041
355.122
354.511
354.133
353.972
354.056
354.544
354.991
355.549
355.987
356.429
356.532
356.639
356.538
356.465
356.327
356.809
357.205
358.131
358.903
347.444
346.682
346.158
345.832
345.676
345.755
346.17
346.551
347.013
347.378
347.763
347.844
347.918
347.808
347.737
347.599
348.024
348.386
349.143
349.761
338.836
338.236
337.784
337.526
337.375
337.461
337.786
338.078
338.48
338.767
339.079
339.162
339.171
339.087
339.061
338.909
339.272
339.572
340.176
340.641
330.212
329.768
329.404
329.198
329.079
329.17
329.4
329.606
329.94
330.164
330.394
330.462
330.459
330.366
330.378
330.241
330.54
330.767
331.241
331.598
321.591
321.288
321.028
320.86
320.763
320.86
321.008
321.136
321.412
321.557
321.715
321.776
321.758
321.69
321.704
321.615
321.811
321.984
322.322
322.566
312.964
312.799
312.617
312.518
312.474
312.543
312.618
312.682
312.881
312.948
313.047
313.072
313.068
313.042
313.033
312.976
313.111
313.211
313.4
313.543
304.343
304.292
304.236
304.199
304.187
304.201
304.228
304.242
304.316
304.339
304.378
304.387
304.385
304.373
304.36
304.345
304.383
304.43
304.498
304.546
366.921
365.913
365.263
364.73
364.451
364.496
364.968
365.292
365.953
366.465
366.916
367.111
367.153
367.125
367.227
367.132
367.524
368.198
369.308
370.289
358.031
357.17
356.598
356.148
355.886
355.93
356.303
356.602
357.155
357.568
357.969
358.168
358.149
358.116
358.19
358.12
358.444
359.049
360.011
360.822
349.119
348.426
347.912
347.531
347.293
347.325
347.637
347.895
348.354
348.681
349.036
349.213
349.161
349.134
349.184
349.125
349.405
349.927
350.742
351.404
340.207
339.644
339.219
338.908
338.7
338.732
339.004
339.191
339.563
339.833
340.124
340.277
340.216
340.168
340.214
340.174
340.413
340.819
341.468
342.012
331.3
330.86
330.514
330.251
330.107
330.13
330.329
330.479
330.774
330.978
331.22
331.334
331.279
331.211
331.234
331.239
331.422
331.738
332.235
332.665
322.377
322.075
321.821
321.598
321.499
321.519
321.662
321.771
321.983
322.129
322.29
322.395
322.344
322.275
322.302
322.338
322.437
322.667
323.045
323.332
313.462
313.268
313.112
312.963
312.91
312.919
312.992
313.078
313.217
313.312
313.39
313.444
313.427
313.375
313.392
313.415
313.462
313.579
313.861
314.005
304.516
304.449
304.404
304.343
304.33
304.339
304.356
304.38
304.431
304.469
304.481
304.507
304.504
304.481
304.488
304.492
304.509
304.542
304.649
304.701
369.154
368.261
367.598
366.967
366.722
366.662
366.97
367.409
367.814
368.172
368.546
368.9
368.824
368.991
369.154
369.385
369.732
370.509
371.448
372.396
359.946
359.185
358.639
358.075
357.849
357.773
358.06
358.453
358.765
359.044
359.377
359.697
359.598
359.751
359.883
360.074
360.346
361.043
361.868
362.639
350.727
350.104
349.663
349.188
348.965
348.879
349.138
349.467
349.719
349.953
350.237
350.494
350.395
350.507
350.642
350.782
351.019
351.607
352.314
352.92
341.523
341.016
340.656
340.252
340.075
340.012
340.208
340.458
340.673
340.88
341.095
341.287
341.208
341.295
341.416
341.508
341.723
342.204
342.778
343.246
332.304
331.909
331.624
331.305
331.169
331.141
331.292
331.476
331.645
331.792
331.969
332.109
332.036
332.086
332.213
332.283
332.448
332.809
333.279
333.624
323.084
322.817
322.609
322.368
322.244
322.251
322.355
322.496
322.624
322.714
322.851
322.948
322.873
322.917
323.023
323.078
323.184
323.437
323.775
324.033
313.863
313.725
313.59
313.421
313.353
313.363
313.422
313.517
313.577
313.646
313.741
313.775
313.735
313.767
313.819
313.849
313.928
314.076
314.264
314.419
304.651
304.612
304.56
304.482
304.472
304.475
304.497
304.53
304.554
304.568
304.608
304.605
304.602
304.615
304.628
304.645
304.668
304.72
304.781
304.835
371.473
370.553
369.809
369.08
368.928
368.867
369.039
369.354
369.714
370.012
370.312
370.649
370.668
370.931
371.078
371.398
371.764
372.62
373.516
374.575
361.948
361.148
360.519
359.904
359.721
359.697
359.842
360.108
360.409
360.68
360.924
361.184
361.186
361.411
361.557
361.802
362.114
362.884
363.646
364.508
352.418
351.742
351.226
350.707
350.521
350.524
350.667
350.88
351.093
351.334
351.525
351.722
351.736
351.94
352.074
352.217
352.488
353.16
353.809
354.482
342.881
342.335
341.922
341.496
341.335
341.352
341.479
341.646
341.81
341.993
342.131
342.268
342.313
342.479
342.572
342.68
342.899
343.463
343.991
344.506
333.36
332.943
332.609
332.287
332.15
332.158
332.282
332.391
332.522
332.683
332.772
332.834
332.907
333.031
333.086
333.174
333.341
333.783
334.183
334.579
323.824
323.531
323.298
323.086
322.968
322.976
323.071
323.137
323.239
323.353
323.418
323.445
323.5
323.603
323.629
323.677
323.802
324.136
324.413
324.693
314.301
314.13
313.994
313.886
313.787
313.805
313.86
313.885
313.962
314.029
314.057
314.09
314.112
314.179
314.184
314.209
314.278
314.485
314.665
314.83
304.795
304.739
304.694
304.657
304.62
304.635
304.654
304.647
304.688
304.709
304.714
304.725
304.728
304.756
304.769
304.754
304.776
304.861
304.915
304.972
373.6
372.795
372.026
371.285
371.021
370.868
371.067
371.301
371.511
371.843
372.045
372.326
372.577
372.717
373.113
373.426
373.891
374.653
375.718
376.82
363.752
363.104
362.423
361.775
361.55
361.411
361.586
361.782
361.956
362.242
362.395
362.648
362.832
362.967
363.311
363.579
363.952
364.582
365.544
366.456
353.932
353.419
352.822
352.275
352.069
351.97
352.115
352.288
352.408
352.657
352.754
352.982
353.132
353.265
353.52
353.752
354.045
354.579
355.378
356.138
344.149
343.711
343.222
342.778
342.612
342.514
342.648
342.766
342.866
343.065
343.131
343.322
343.433
343.581
343.762
343.951
344.168
344.59
345.254
345.876
334.345
334.004
333.628
333.296
333.145
333.081
333.181
333.26
333.338
333.479
333.514
333.672
333.762
333.922
334.012
334.169
334.319
334.64
335.162
335.642
324.542
324.293
324.051
323.787
323.689
323.644
323.712
323.762
323.812
323.899
323.919
324.04
324.121
324.25
324.281
324.398
324.508
324.726
325.108
325.437
314.753
314.595
314.447
314.278
314.235
314.2
314.243
314.268
314.306
314.348
314.348
314.415
314.498
314.576
314.558
314.647
314.703
314.856
315.066
315.257
304.944
304.883
304.839
304.781
304.768
304.768
304.778
304.783
304.795
304.799
304.808
304.824
304.867
304.888
304.887
304.912
304.929
304.977
305.034
305.118
375.672
374.797
373.942
373.281
372.975
372.807
372.938
372.981
373.125
373.451
373.72
374.004
374.242
374.446
374.803
374.975
375.832
376.475
377.551
378.568
365.535
364.794
364.048
363.484
363.236
363.06
363.178
363.221
363.332
363.591
363.815
364.074
364.263
364.438
364.748
364.874
365.595
366.168
367.089
367.952
355.439
354.82
354.159
353.704
353.481
353.332
353.458
353.455
353.579
353.762
353.921
354.167
354.345
354.486
354.721
354.833
355.408
355.889
356.67
357.369
345.355
344.831
344.301
343.93
343.74
343.628
343.743
343.716
343.826
343.981
344.079
344.297
344.438
344.551
344.741
344.802
345.271
345.64
346.291
346.844
335.268
334.882
334.47
334.156
334.01
333.914
334.018
333.995
334.074
334.224
334.249
334.444
334.542
334.662
334.771
334.821
335.161
335.445
335.965
336.39
325.195
324.941
324.638
324.389
324.294
324.233
324.305
324.277
324.351
324.457
324.449
324.597
324.668
324.772
324.828
324.878
325.095
325.291
325.67
325.981
315.139
314.986
314.812
314.634
314.603
314.557
314.6
314.578
314.626
314.695
314.679
314.759
314.831
314.879
314.905
314.942
315.064
315.157
315.414
315.6
305.082
305.017
304.974
304.899
304.897
304.873
304.901
304.886
304.912
304.921
304.914
304.946
304.969
304.993
304.995
305.008
305.042
305.082
305.176
305.234
377.008
376.373
375.338
374.796
374.348
374.14
374.2
374.493
374.409
374.602
374.878
375.259
375.492
375.709
376.208
376.345
377.261
377.903
379.023
379.925
366.62
366.089
365.2
364.72
364.342
364.15
364.207
364.446
364.39
364.525
364.788
365.102
365.297
365.48
365.937
365.977
366.813
367.324
368.313
369.046
356.291
355.849
355.095
354.674
354.377
354.216
354.266
354.43
354.414
354.543
354.75
355.01
355.159
355.297
355.703
355.699
356.41
356.862
357.65
358.263
346.022
345.632
345.044
344.676
344.443
344.316
344.377
344.471
344.488
344.591
344.739
344.953
345.082
345.194
345.519
345.486
346.063
346.459
347.079
347.549
335.77
335.462
335.012
334.725
334.55
334.447
334.516
334.555
334.584
334.648
334.753
334.95
335.032
335.119
335.362
335.325
335.796
336.093
336.557
336.938
325.548
325.315
325.004
324.806
324.681
324.604
324.663
324.66
324.703
324.723
324.786
324.969
325.007
325.095
325.241
325.201
325.551
325.753
326.09
326.372
315.316
315.204
315.006
314.895
314.815
314.771
314.819
314.795
314.829
314.862
314.866
315.002
315.021
315.07
315.16
315.123
315.332
315.448
315.658
315.829
305.124
305.097
305.034
304.99
304.96
304.959
304.98
304.962
304.964
304.983
304.985
305.018
305.041
305.059
305.078
305.069
305.133
305.166
305.251
305.299
)
;

boundaryField
{
    hotSide
    {
        type            fixedGradient;
        gradient        nonuniform List<scalar> 
400
(
443.458
446.995
454.382
465.53
480.075
497.488
517.193
538.666
561.465
585.237
609.708
634.667
659.95
685.428
710.999
736.576
762.087
787.475
812.701
837.751
421.223
424.972
432.843
444.729
460.191
478.602
499.31
521.736
545.407
569.959
595.116
620.669
646.461
672.372
698.306
724.185
749.941
775.522
800.894
826.045
408.97
413.242
421.591
433.902
449.741
468.493
489.508
512.209
536.119
560.87
586.18
611.84
637.695
663.626
689.543
715.375
741.063
766.562
791.844
816.905
406.116
411.194
420.029
432.507
448.264
466.779
487.482
509.843
533.408
557.811
582.768
608.067
633.547
659.092
684.617
710.057
735.366
760.509
785.469
810.249
410.197
416.224
425.591
438.184
453.711
471.758
491.855
513.542
536.403
560.091
584.327
608.899
633.65
658.471
683.284
708.037
732.698
757.247
781.678
805.997
418.434
425.442
435.413
448.224
463.629
481.288
500.807
521.785
543.849
566.673
589.996
613.62
637.403
661.254
685.117
708.959
732.767
756.535
780.269
803.979
428.606
436.574
447.22
460.408
475.909
493.415
512.572
533.008
554.374
576.364
598.736
621.318
644.004
666.737
689.495
712.279
735.097
757.963
780.89
803.893
439.097
447.964
459.326
473.033
488.852
506.479
525.559
545.717
566.594
587.887
609.374
630.92
652.469
674.023
695.611
717.275
739.052
760.974
783.062
805.329
448.71
458.356
470.407
484.701
500.995
518.969
538.24
558.392
579.027
599.818
620.553
641.145
661.612
682.029
702.492
723.088
743.883
764.922
786.231
807.82
456.546
466.764
479.367
494.188
510.976
529.389
549.005
569.349
589.958
610.458
630.639
650.466
670.04
689.52
709.063
728.798
748.81
769.153
789.851
810.911
461.989
472.477
485.369
500.5
517.614
536.352
556.263
576.827
597.523
617.935
637.849
657.267
676.347
695.304
714.336
733.593
753.172
773.128
793.484
814.244
464.783
475.172
488.006
503.119
520.249
539.033
559.011
579.655
600.441
620.952
640.965
660.477
679.64
698.662
717.74
737.024
756.613
776.563
796.902
817.635
465.099
475.026
487.464
502.246
519.105
537.676
557.512
578.115
599.003
619.79
640.248
660.329
680.116
699.757
719.407
739.195
759.214
779.524
800.155
821.123
463.575
472.746
484.547
498.815
515.278
533.57
553.254
573.866
594.968
616.204
637.338
658.265
678.99
699.581
720.134
740.742
761.481
782.408
803.561
824.961
461.311
469.527
480.578
494.309
510.434
528.568
548.264
569.065
590.549
612.371
634.283
656.137
677.875
699.502
721.057
742.596
764.172
785.833
807.617
829.55
459.904
467.064
477.355
490.629
506.571
524.741
544.647
565.806
587.787
610.241
632.909
655.619
678.276
700.842
723.319
745.728
768.104
790.479
812.887
835.357
461.55
467.648
477.222
490.131
506.001
524.31
544.495
566.027
588.458
611.433
634.692
658.054
681.408
704.692
727.883
750.983
774.004
796.969
819.901
842.828
468.954
474.117
483.026
495.547
511.25
529.539
549.789
571.441
594.038
617.229
640.757
664.442
688.165
711.855
735.471
758.999
782.437
805.794
829.085
852.33
484.536
489.034
497.311
509.244
524.406
542.198
561.999
583.257
605.526
628.464
651.818
675.409
699.111
722.84
746.547
770.2
793.784
817.297
840.743
864.134
508.989
513.129
520.795
531.889
546.056
562.789
581.545
601.828
623.223
645.402
668.117
691.183
714.466
737.869
761.329
784.801
808.256
831.68
855.067
878.421
)
;
    }
    coldSide
    {
        type            mixed;
        refValue        uniform 300;
        refGradient     uniform 0;
        valueFraction   uniform 0.991591;
        source          uniform 0;
        value           nonuniform List<scalar> 
400
(
300.024
300.025
300.025
300.025
300.026
300.027
300.028
300.029
300.03
300.032
300.033
300.034
300.035
300.037
300.038
300.039
300.04
300.042
300.043
300.043
300.024
300.024
300.024
300.025
300.026
300.027
300.027
300.029
300.03
300.031
300.032
300.033
300.035
300.036
300.037
300.039