/*--------------------------------*- C++ -*----------------------------------*\
| =========                 |                                                 |
| \\      /  F ield         | OpenFOAM: The Open Source CFD Toolbox           |
|  \\    /   O peration     | Version:  2212                                  |
|   \\  /    A nd           | Website:  www.openfoam.com                      |
|    \\/     M anipulation  |                                                 |
\*---------------------------------------------------------------------------*/
FoamFile
{
    version     2.0;
    format      ascii;
    arch        "LSB;label=32;scalar=64";
    class       volScalarField;
    location    "./ITHACAoutput/true/0.5";
    object      error;
}
// * * * * * * * * * * * * * * * * * * * * * * * * * * * * * * * * * * * * * //

dimensions      [0 0 0 1 0 0 0];

internalField   nonuniform List<scalar> 
3200
(
-1.21941
2.20892
2.91898
4.73138
3.4652
6.10433
6.88177
5.48225
6.63316
6.38824
4.56878
7.08716
7.34422
4.62503
2.82273
4.15326
3.36546
2.84385
2.32897
-0.256073
0.0536215
1.1039
1.44315
2.36554
4.73029
1.85669
5.94523
4.43702
6.52542
6.17379
7.41595
3.95938
5.6038
4.47771
4.74145
2.20929
4.02496
0.105388
2.5914
2.76757
0.779907
2.85535
1.9364
1.15797
2.25268
5.3016
3.17768
6.23128
4.55137
7.10506
4.05761
4.22876
2.59329
5.42708
4.07394
3.98325
5.07835
4.93288
0.457581
0.858802
0.61243
3.79293
2.08427
0.783714
1.13805
-0.656492
3.63852
3.75305
4.69124
5.36953
3.07287
3.34074
3.93769
1.06916
2.08586
2.23327
2.05382
0.554878
1.3411
1.95654
2.35879
0.0718444
0.49678
-1.98847
3.22761
0.943744
6.10244
2.4492
3.55514
2.0162
2.67596
2.02725
4.38142
1.5594
1.34611
-1.07422
2.99611
0.148129
0.737948
0.960736
3.89386
-2.37709
1.0377
1.1241
-1.38299
-0.0308944
4.35824
2.99193
3.05227
2.5163
2.19904
1.30446
3.29128
3.01228
-0.84274
1.95442
4.22963
-0.356312
-0.467575
-2.1642
0.214205
2.00782
1.69448
4.82616
1.16817
0.430744
0.49728
1.26533
1.65433
3.45523
0.151327
1.09249
-0.374815
0.662972
1.21197
-1.50895
0.332077
2.1663
-2.54099
2.44366
2.00688
-1.29037
0.723215
-1.01126
0.755768
-1.80172
1.48361
0.621119
0.44672
-0.950063
-0.209759
-0.274438
0.123886
-1.32316
0.342184
1.20841
0.772858
0.813109
-0.344131
0.741948
1.83165
1.42314
0.538583
0.821449
5.17502
4.9361
3.77482
6.33649
4.33865
8.19691
6.13913
5.14427
4.72267
6.23937
3.69176
2.84278
0.432567
0.181112
-0.434253
2.22698
-0.421525
1.78476
-0.73463
-0.368467
1.59497
0.676203
2.63066
0.442808
4.71666
0.470522
-0.0256248
5.24374
0.21873
2.43538
0.0992823
0.0703469
0.469572
1.95672
0.296536
1.29725
-1.52664
1.52515
-0.167668
3.40149
1.65484
2.69557
3.90547
5.41396
2.49087
3.99629
7.41554
5.22724
3.43716
0.526995
2.61174
2.43716
1.02917
2.9032
-0.0924139
0.46937
-0.7567
-1.18977
2.32129
2.00157
2.4775
2.31633
4.12688
3.56508
5.11713
3.09636
5.64643
2.71633
4.28797
2.47408
2.67698
1.31288
-1.09931
1.01319
-0.506597
-0.925404
0.800408
0.815607
-1.94755
-0.0263513
1.38919
-0.0345889
1.44305
1.3154
0.123991
4.62937
0.963183
3.82814
1.63097
3.17297
-1.28687
-0.41919
3.89855
0.0815661
-2.32562
-0.436544
1.66515
-0.243041
0.831955
0.256341
-0.289538
-0.361265
1.61448
1.34043
5.07782
2.58096
1.87806
1.61649
3.63517
4.18103
0.812649
2.1374
-0.610914
1.05984
2.19117
1.43807
0.950013
-1.05502
1.63389
1.5461
0.997342
2.53505
2.43349
1.47861
1.04048
4.72838
0.787575
1.53521
1.53035
-0.774185
-0.839028
0.783818
-0.868573
1.11293
-0.0189987
1.06508
-0.268577
-0.73965
0.848611
0.382573
-0.508995
-0.653409
1.24872
-0.0566831
2.32258
2.0074
-0.731095
0.537304
0.666644
1.19008
-0.742148
0.838034
-0.847911
1.753
-0.236862
-3.16169
-1.0849
-0.680461
2.67782
1.82417
1.94484
1.02691
7.25323
5.34981
2.54169
3.66278
2.31547
4.44879
3.61914
3.73534
2.17162
3.8216
1.35344
0.481798
-0.643599
1.27732
0.0925039
-1.42985
2.22026
3.27212
4.63026
1.64266
3.10958
3.75791
2.27115
3.35191
4.70658
4.32026
4.07995
4.00632
1.65292
0.282039
1.52555
-0.983988
-0.918806
-0.877968
1.74399
2.5443
1.58498
0.634079
2.93428
2.00997
2.78104
4.47378
5.24574
4.20788
3.43294
3.48712
1.95644
2.86909
2.34684
3.25308
0.393956
1.38021
2.07499
-1.8506
-2.84465
2.31763
0.37319
-0.160178
0.285663
-0.827898
-0.855918
4.1672
3.61867
1.34107
1.83119
3.94015
2.03341
1.49196
3.25797
1.46399
-1.01441
0.13329
0.10217
-0.636629
-0.0292196
3.08175
0.571388
-0.400399
0.394965
0.782217
2.35244
2.52226
2.03428
4.22102
2.84895
3.17292
1.02148
0.321368
-1.07225
0.000693025
-0.603478
1.1759
2.31393
-0.671276
2.42221
1.0921
0.900635
1.73193
1.97872
1.73653
-0.416179
0.804082
1.24974
1.27591
2.68536
2.81725
0.96546
-0.578686
3.55914
-2.01408
1.81664
0.175488
-0.528516
0.650856
0.685871
1.96595
1.51918
1.19523
-0.615609
1.48587
0.892895
1.42305
0.237492
1.53377
1.45812
0.394582
1.98162
-1.37052
-0.101643
0.60373
0.125227
-1.47168
0.136675
-2.93631
-0.897266
-0.51449
-1.40506
2.23885
-2.4922
1.52554
-0.93513
1.17552
0.927017
0.176611
-0.323859
1.37087
-1.14625
0.00873735
-1.09666
-1.83786
-0.396957
1.40533
-0.466128
-1.42499
-1.29357
-0.37791
-0.770282
-0.0390443
0.189971
0.850828
3.38182
1.44495
3.29508
3.2696
2.8581
3.38194
1.02639
2.05157
3.56503
2.57563
2.82547
-1.21234
-1.33416
-1.29273
-0.483041
1.44738
0.113341
0.621512
0.0968414
-0.00495526
-0.213783
0.198222
0.32388
0.694126
0.824364
2.66012
0.0795072
4.03865
0.48871
2.32792
0.92382
-0.981854
-0.656635
-1.00471
-1.6457
0.412758
-1.8817
0.84475
-1.62615
1.49102
1.25833
3.33123
2.46719
4.37914
2.94598
1.26771
0.49447
-0.790328
-0.196149
0.720301
-2.29108
-1.02537
-1.16258
2.48602
0.509625
-1.88658
1.31412
0.204605
0.855581
1.76651
0.96924
2.73863
1.09176
3.85686
3.94967
2.00237
3.73774
2.75862
1.93818
0.619321
0.358683
-2.67337
-0.204957
0.821821
-0.430463
-0.720617
-0.304656
1.02625
1.24822
0.575724
2.51559
2.31883
2.8395
1.6012
-0.292527
1.55435
-0.0692392
1.88667
2.37683
0.519529
1.27981
-0.253756
-2.29768
-1.4406
1.18367
-0.82758
-1.32727
-0.531957
1.87996
2.34229
-0.067554
2.07821
1.37515
-0.137534
2.59004
2.01554
1.35841
0.493048
0.612276
2.5637
-1.1142
-0.752328
0.333434
0.363484
1.66375
1.91165
-1.45142
2.18026
-0.020148
-1.07175
-0.835671
0.541832
0.917621
0.419838
-0.278389
2.21501
-0.91119
-1.29422
1.38904
0.394298
0.291847
0.213051
-1.22234
-2.30529
-1.5458
-1.43788
-0.181774
-1.0512
-0.52206
0.769886
2.09629
0.873718
-0.521269
-2.22133
-0.74098
1.7123
0.0264747
-0.278881
1.03305
1.14639
-0.0493074
1.94967
1.9701
-0.530687
-0.964346
1.92869
-3.37815
3.05502
-1.26655
-0.271001
-0.238641
4.82907
3.43206
3.3555
3.37599
3.30557
2.21725
2.2322
-2.0738
-0.803684
-0.821867
-2.96397
-4.67933
-0.605482
-0.513005
-1.7812
-2.77033
-1.38176
0.446801
0.0289786
0.203932
-0.788232
2.4613
4.59728
2.23898
3.05766
1.05553
-1.11699
1.83878
0.282262
-0.0268403
-3.45803
-2.68146
-1.92506
-1.55496
-2.38944
-1.58747
-2.2403
-1.10865
1.01803
0.487807
0.100764
2.10923
2.63664
1.11011
1.98999
0.175974
0.672498
-0.760654
0.0696507
-1.01415
-0.350664
-0.953154
-1.38074
-0.770345
-1.20867
-1.12767
-0.929959
-0.054452
-1.98407
1.44671
0.809047
0.461332
1.87589
0.432275
2.82418
2.68227
5.91257
-0.812141
0.0660177
0.354309
-1.89632
-2.34738
2.80421
-0.709022
-0.896742
-2.81193
-2.14318
1.01659
0.397038
0.99748
2.9068
0.34435
2.33317
3.32297
1.37095
2.91049
2.9199
1.39743
1.84643
2.35364
-0.404008
0.145024
-0.682044
1.55024
0.912355
0.596993
-0.782398
1.5701
-0.835245
1.5278
0.719786
2.11562
4.33216
1.41691
0.795236
0.755963
-0.235952
-0.784891
-0.0742298
0.731263
0.901985
1.02465
-1.21158
0.0193289
-0.129328
3.19866
0.984348
-3.37972
1.23098
-1.8553
-1.04523
0.431315
-0.505569
-0.460907
0.246874
0.7106
-1.37775
2.45859
2.79101
0.639523
0.833905
-0.573538
-0.223613
-2.54996
-1.36274
0.333417
0.528779
1.37974
-1.79944
-0.186071
-0.495015
0.75003
2.24796
-0.230572
-0.212772
-1.29019
3.036
1.80808
-3.43801
0.795028
-0.548
1.41259
-2.31594
0.753541
-1.38826
-1.22425
-2.27546
-1.11293
0.188993
0.315946
2.32625
0.817375
1.24704
-1.69723
1.15505
0.733373
0.0854993
0.132498
-0.0218682
-1.90013
-2.50666
-0.916505
-0.583078
-3.78905
-0.202662
-1.52065
-0.348841
0.480277
-0.807953
0.953561
-0.315424
2.09352
-0.237862
0.280502
0.867045
0.089788
2.57317
-0.568498
0.854453
1.01069
-1.22466
-0.340257
-1.78084
-1.65024
0.508328
-1.4613
-0.692315
-2.92781
0.952438
0.679222
0.129684
2.20108
2.93293
1.9819
3.09269
1.54154
2.69235
-0.9796
-2.86437
-1.46811
-2.52886
-2.68159
-0.516528
-0.0313534
2.68951
-2.11162
0.252754
0.462051
0.577603
0.824937
-1.6376
1.879
-0.182028
2.32452
-0.730371
0.0751609
-0.9653
0.304991
-2.9355
-0.663602
-0.36927
-0.477528
-2.65672
-1.44951
-1.77698
-0.594205
-3.10816
-0.350368
0.487638
-0.495274
0.507875
0.0477936
1.4941
-0.466916
-2.48748
0.845989
0.789805
0.876319
-0.685174
-0.990912
-1.84075
-0.123016
-2.40498
0.805313
-2.6245
0.0754872
-1.22783
-2.28594
0.314856
1.1716
1.22894
0.52319
0.638881
1.35035
-0.114483
-1.0415
1.46817
-1.48839
0.394296
0.173221
-0.829872
0.0963542
-1.76845
-0.91987
-2.12879
1.659
0.39674
-0.491586
-1.67204
-0.738693
1.99663
-0.551197
1.27435
0.619664
-0.59295
1.49
-1.28299
-1.01623
-0.789668
-0.978901
-0.910048
1.90144
-0.541673
-1.57708
1.15248
0.182497
0.805895
0.937099
0.41957
-0.719883
-0.942369
1.95417
0.731509
1.36152
0.861772
0.383611
-0.77546
-2.30922
1.04323
-0.0354324
1.64774
0.269007
2.49178
-3.41859
-2.71114
-1.96664
-4.62591
0.305106
-1.67235
0.460853
-1.27888
0.690019
0.55193
1.85227
-2.82929
-1.49846
-0.100215
-0.968949
-2.31166
-0.409056
-4.09674
-3.12398
-2.64526
-2.36181
-3.57256
-3.20816
-1.60486
0.417984
2.59906
-0.0895396
1.49186
0.948239
-0.788402
2.15615
-2.47107
-0.332519
0.0823477
-0.906388
-2.23185
-2.56009
-1.54731
0.167854
-2.23238
-1.25543
-2.49508
-1.29882
-0.969691
-2.6474
-3.65627
0.738696
0.882457
0.377365
1.62032
1.19954
2.44776
1.07873
-1.40829
-1.00732
0.216037
-2.59798
-2.78079
-4.59641
0.156884
-3.56355
-0.428918
0.385592
-0.225356
0.527936
1.75125
-1.41133
-1.10257
-0.339866
-0.162933
0.545435
-1.76543
-1.29192
0.908287
1.08572
-0.404067
0.888325
-2.76175
-3.75365
-0.336725
-2.29454
-2.47155
-1.08016
-1.64861
0.513278
2.33548
0.974002
0.433621
0.39246
2.54494
1.25096
-2.66203
-1.45658
-0.710453
-0.244725
0.855185
0.079392
-0.757931
1.17956
-1.07222
-1.06935
-0.284944
-0.933545
-0.260028
-2.00624
-3.35197
0.246267
0.169547
0.372153
-0.264009
1.0682
-1.24012
0.476003
-0.38978
-1.799
-0.43374
-3.18135
-2.56209
-1.41281
0.159575
-0.59981
2.00338
-0.889117
-2.56371
0.986107
-0.705101
1.04372
-1.20769
-0.856603
-1.08466
1.15569
2.88417
-0.503371
0.985527
-1.07267
0.591408
-2.68155
-2.27474
1.81271
0.310012
-2.56756
-1.42978
-0.891236
0.606812
0.801268
-1.69721
-0.931656
0.513165
1.76138
0.18012
0.0520482
-0.869105
0.674111
0.474284
2.40687
1.81381
0.129045
-1.88536
0.318793
1.44987
-2.1975
-4.26658
-2.20402
-3.13509
-2.31178
-2.08634
-4.04947
-2.77842
0.821325
-2.36665
-0.0913416
-0.412159
-0.588884
-2.56956
-1.37206
-2.63959
-4.55657
-3.33274
-1.07674
-1.75892
-2.80421
-0.161851
-0.807742
-2.07699
-1.87612
-0.0980502
-1.72727
-0.18563
0.92184
0.0267752
-0.103081
0.550419
-0.414064
-0.929406
-0.266478
-2.66463
-0.30813
-1.84054
-0.227775
-2.81756
-1.90746
-1.8229
-2.9972
-1.51213
-0.427695
-2.63414
-0.562369
2.43981
-1.41628
-0.940012
-0.41116
-0.473104
-1.63699
1.69412
-4.10843
-3.48975
-1.78263
-2.29458
-3.04075
-1.12326
-1.33074
-3.86937
-2.26688
0.109125
-3.20863
-1.41287
-1.54894
-0.384421
-1.47823
-1.37142
0.90625
0.521575
-0.439559
-1.16323
-3.46327
-3.23243
-0.822791
-2.49802
-2.54408
-2.33405
-2.09126
-4.08933
-2.50182
-1.67618
-1.38469
-0.197994
1.34397
-0.328954
0.606035
-2.49331
0.642394
0.454048
0.458296
-1.82996
-1.1215
-0.246907
-0.325556
-4.64873
0.156809
1.47428
1.56347
-2.08741
-1.60511
-1.24264
-2.69745
0.160045
-0.252024
-2.01277
0.0109371
0.406295
2.33723
-0.0842409
1.06162
-1.52216
0.0794087
-0.611501
0.479414
-0.211353
-2.26894
-0.749843
0.690923
0.605677
1.29151
-1.82197
-1.66707
-3.79058
-1.30674
0.560129
1.49135
-0.00214284
1.14924
-0.368637
0.969359
1.42991
0.965238
-0.687967
-0.457534
-0.645809
0.765495
-2.25191
-0.457748
-1.28691
-1.37352
0.092144
2.29244
-2.17442
-1.0315
0.43746
-1.05511
0.918187
0.0626129
-1.26758
0.890345
-0.652505
-0.177096
2.5685
0.0231157
-1.51002
0.216974
-0.419822
-1.5819
-3.82541
-2.14956
-3.45826
-0.0825699
-1.12752
-2.50354
-2.78594
-0.675399
-3.58998
-2.87413
-0.715419
-0.923964
-0.443604
-4.26235
-3.57844
-2.02901
-1.32625
-3.81439
-4.30388
-2.50831
-5.08942
-2.09037
-3.76021
-1.58078
-2.31929
-3.3132
0.720238
0.18569
-2.44263
-0.388233
-3.41337
-1.65454
-2.86361
-0.344084
-0.758124
-4.03668
-1.47993
-0.0165006
-1.64644
0.268038
-2.41035
-2.31468
-1.14246
-1.13478
-2.24719
-1.47951
-0.222813
-1.42812
-0.548755
1.84304
-0.423943
0.089636
-0.364972
-0.320955
-1.92722
-2.26895
-0.669942
-3.27791
-2.25363
-2.70261
-2.23494
-1.50231
0.115021
-1.65051
-3.04582
-2.90718
-0.976751
-1.81329
-1.15216
-0.00330599
-1.2089
0.0120271
-0.425073
-3.82549
-1.68568
-1.9177
-1.02333
-1.69452
-2.39996
-1.88177
0.590734
-2.00113
-2.49531
-2.28023
-1.87784
-2.05421
-1.54716
-0.0202821
-3.26541
1.58254
-0.525641
-0.15832
0.36246
-0.876437
-2.93335
0.0831008
-1.30449
-1.38602
-1.15582
-0.579827
0.49728
-2.0757
-0.7982
0.630937
1.25774
-0.209128
0.190468
0.222654
-0.401471
-0.271093
-1.92347
0.318666
0.016386
-0.507484
1.3678
-1.65959
0.700046
-0.379765
-2.86563
-0.208871
0.504818
-2.61008
-0.520433
-2.35424
1.22075
0.178166
0.158899
0.305121
0.635869
-0.274838
-2.93669
-0.818757
-0.977538
-3.67167
1.14229
-1.14379
-0.72078
1.26946
0.943089
-0.381503
-1.78534
2.32702
-1.64065
-1.6336
0.378362
-0.164315
0.375489
-0.615885
0.0481636
0.377504
-0.675617
-0.424204
0.597154
-1.74928
-2.24891
0.631835
0.709622
-0.0988327
-0.478667
-1.99628
-1.37516
-4.7445
-2.34069
-2.96511
-3.39099
-2.26495
-1.19516
-1.72794
-3.08246
-0.237646
-1.12726
-1.84495
-2.33291
-3.76601
-5.364
-3.63243
-3.05202
-3.10535
-1.67021
-2.71616
1.30994
-2.43039
-1.08659
-2.45323
-0.160342
-5.4698
-0.630613
-2.39917
-0.366621
0.18586
1.54766
0.634962
-0.679679
-0.0262717
-3.24356
-0.0293841
-3.64048
-0.415505
-2.10519
-2.3743
-4.20067
-0.110403
-2.08434
-5.09018
-3.03414
-5.25236
-1.98997
1.03398
-1.45413
-2.33005
-0.139346
-1.18579
-2.87875
-1.04247
-2.6749
-1.67669
-2.15724
-0.957509
2.97772
-2.95613
-1.64426
-1.08775
0.879753
-1.00414
-1.96452
-1.85495
-1.32624
-0.0878764
-1.04262
-0.912251
-0.752858
-1.9915
-2.24174
-3.7118
-1.28092
-0.37805
-1.64409
-0.0461494
-3.08225
0.0215326
-2.32689
-3.12487
-2.75631
-2.67188
-2.1138
-1.8587
4.28879
1.07478
0.414661
0.889784
0.685606
2.51193
-0.186148
-2.56848
-2.50028
-1.07807
-2.7159
-3.44756
-3.16182
-1.5288
1.63109
-0.692833
-3.14362
0.135487
-2.69523
-0.830872
1.70459
-2.99168
0.334803
-0.624163
-0.827087
-0.479601
1.65647
0.0501332
-1.7176
-1.16132
-0.399443
-3.70195
-1.48508
-1.11606
-0.583329
-1.53639
-1.40299
-0.571637
0.474758
-0.625761
-1.39405
-0.772648
-2.76082
-0.310412
0.852672
-0.796241
-1.20833
-3.7176
-1.2637
0.397391
-2.15579
1.25862
-0.750045
-2.15218
3.91769
-0.944122
0.0841066
-0.484192
-0.394878
-0.396964
3.38398
1.49425
-0.902045
-1.18101
0.673753
-1.22954
0.332553
-0.675507
-1.85419
-1.53012
-0.59163
0.392471
0.306037
-2.4041
-1.96599
-3.52147
-4.40863
-3.0969
-3.08948
-1.41027
-2.17957
-3.18446
-4.80226
-1.9195
-2.95533
-2.27122
-2.11575
-3.94778
-4.11521
-4.72373
-4.62484
-0.686623
-0.76381
-1.73682
-0.615681
-0.869922
0.343963
-0.708293
-0.493818
-3.07064
-0.206961
-2.17879
-0.696015
0.0258727
-3.65274
-0.0235246
-1.35594
-0.186942
-2.30152
-0.678087
-5.02972
-0.721068
-1.19654
-2.3033
-1.64723
-1.50067
-2.35479
-1.28819
-2.46155
-0.51797
-1.77468
-2.77361
-3.44016
0.41547
0.130714
-1.45071
-1.94389
-1.29303
-1.3247
-3.05308
-2.14849
-2.45229
-2.61692
1.26539
-2.36714
0.669818
-0.582369
-1.19242
0.488689
-1.12056
1.09272
-1.27153
-0.0839982
-1.55938
-2.01892
-0.0205498
-0.786364
-1.68288
-0.256439
-1.97142
1.02628
-3.73047
-0.989993
-0.0302314
-0.462091
0.5765
-0.873798
0.451641
-1.37229
0.499175
-4.39338
-2.47915
-1.48965
-2.76442
-0.280937
-1.98648
-1.60329
-1.94608
-4.16243
-1.61607
0.174776
-1.43394
-0.475033
-2.34475
-0.755501
0.261873
-1.32644
-2.09315
-1.56185
-2.08458
1.1958
-0.402104
-0.281568
-1.10333
0.0383127
-0.899801
0.375487
-3.25209
-2.64867
-0.387334
-1.19676
0.877056
-0.334955
1.33823
3.81814
-1.6714
-0.536442
-1.13877
-2.04047
-0.315191
-1.67579
0.244734
-0.24283
-0.104161
1.01891
-0.898113
-0.894211
-0.521775
-2.79087
-1.33168
-1.53805
-1.55395
1.02606
2.38366
-1.90273
-2.00655
0.462095
0.812977
0.215598
0.919671
0.291341
1.92768
2.35142
-0.47912
0.631704
0.0318496
-1.67961
-1.14938
-1.45687
2.5831
-0.179965
-1.9975
0.396343
-2.97053
0.460926
-0.929422
-4.37467
-3.49341
-4.95329
-4.55825
0.288719
-1.84705
-2.4093
-2.60725
-3.24476
-4.11673
-3.65952
-6.75082
-0.677055
-3.76245
-3.93878
-3.79103
0.0030406
-1.07992
-2.21343
-1.97238
-2.24341
-1.0973
-2.86194
-2.25529
-0.873664
-0.0671636
-1.29225
-1.28126
-2.74133
-3.09218
-3.06359
-3.84654
-1.9081
-3.0424
-0.485507
-0.579583
-0.940622
1.06613
-0.627277
-1.54624
-1.54317
-1.29366
1.58273
-1.25913
-2.98586
-0.537034
-4.35492
-3.01125
-1.75931
-2.64631
-1.78864
-3.53974
-2.38702
-2.83233
-2.64932
-1.48906
-2.06189
0.551597
-1.34087
-0.458467
-0.176206
-2.52012
-1.078
-1.21041
-1.55792
-0.0551591
-0.236123
-0.41676
0.506121
-0.125078
-2.97008
-2.68591
-2.05014
-0.571745
-2.3037
0.827995
-0.494932
-0.128408
-2.16845
-0.153293
1.58165
-0.300164
-0.0803633
-1.00096
-4.17158
-2.9926
-1.0982
-0.838323
-2.25461
-0.054339
0.00935589
-1.08918
0.754422
-2.42247
-3.88797
-0.986818
-2.19237
1.25675
-1.82876
-2.78802
-1.61308
0.344046
-1.21583
0.222746
-1.02939
-1.68211
-1.32311
-2.10661
-0.0622034
1.65571
-1.2504
-0.730616
-0.988647
-1.80675
0.482811
1.61
-1.19077
-1.03941
-3.33048
-0.263164
2.06567
-1.2321
-0.957581
-0.603754
0.334799
1.11443
1.36802
0.561069
0.00263362
-0.00317827
-1.84715
-3.3652
-0.772173
-0.0558711
-2.36557
-2.12375
-0.401347
1.48473
1.1993
-1.56508
-0.830256
0.018513
-0.911716
0.407463
1.50657
-1.62462
-0.912237
-1.53112
-1.80685
1.62996
1.41061
-1.46338
1.8409
-0.175261
2.44351
-1.61392
0.916863
-0.355652
-2.4428
-1.19148
-1.68784
-4.37809
-1.70699
-2.57143
-2.75068
-0.023983
-0.803315
-2.22179
-3.64046
-1.99717
-0.574271
-2.70457
-3.18197
-0.036085
-4.92399
-1.42821
-0.90604
-2.55906
-0.127014
-4.13433
0.56317
0.556295
-0.490781
-2.7824
0.0051199
1.80138
-0.26683
0.0915404
-1.8744
-0.0842476
-2.7057
-0.291241
-0.686734
-0.257864
-1.15588
-0.0874337
1.4464
-1.75353
-1.9625
-1.01887
-0.553961
-2.25665
-1.99138
-2.82975
-1.38728
-2.30743
-0.820706
-1.18019
0.5318
1.825
0.00747693
-0.944752
-0.986923
-1.29979
-1.3438
-0.31444
1.45271
-1.69357
0.267898
0.244418
0.683098
0.743161
-0.583569
-0.460345
-0.0308507
-3.14311
0.279137
-0.404069
-1.25128
-2.83019
-2.0199
-1.34965
-0.584059
-0.829794
-2.10281
-0.0961649
-1.46136
2.61184
-1.02455
-1.71139
-1.87005
-1.59125
-3.21683
-2.144
-1.68641
-1.85844
0.180689
-2.14729
-1.35805
-2.68537
2.64533
-1.04779
-4.26723
0.314612
0.00167453
-1.62597
-1.07664
-0.979954
-1.08263
-1.95558
3.2045
-0.123181
0.406173
-1.85266
-1.72828
-1.67795
-2.26545
-3.00599
-1.24045
-1.31536
-2.59884
-1.5392
-2.3424
0.275972
1.48209
1.13111
-0.236267
1.77399
-0.425563
1.3645
1.16179
-1.89767
-1.95997
-2.43914
-2.4158
0.0860224
-2.3834
2.07953
-1.69464
-0.489967
1.51182
-0.0483208
-0.396114
-0.775495
1.45913
-2.67637
-0.390585
0.698715
0.42948
1.26946
1.2871
1.30032
-1.47797
2.97286
0.86901
-1.06654
1.53665
-1.41518
-0.319029
-1.38259
-1.51452
-1.64364
-0.211277
-0.690314
2.67413
-1.64144
2.31727
0.0452134
-0.714684
1.04657
-1.59665
-2.74057
-2.5953
-0.0786103
-3.45475
-3.73081
-6.21135
-0.701815
-2.67269
-0.876994
-5.39935
-1.61204
-1.78642
-2.27217
-2.20786
-0.927444
0.64403
-1.27953
-0.846024
-3.76107
-3.36292
-0.295442
-1.53033
-1.19412
-0.550756
-0.163048
-0.465708
-3.83372
-2.54865
-1.4953
-2.50817
-2.44459
-2.57948
-3.90919
0.352583
0.851008
0.560135
0.255225
0.138037
-2.69173
-1.29881
0.80082
-0.658784
-0.888703
-0.856435
-2.97918
1.18682
-2.4554
-2.65383
-0.975801
-0.978813
0.229792
-2.25529
1.1805
-0.861964
-1.1688
0.44381
-1.41765
-1.40045
-1.07683
-1.44352
0.396132
-0.688623
1.58011
-0.387619
-2.62871
0.0995856
-0.128003
-1.83503
0.644642
-1.19932
-0.301325
3.14546
1.11688
-0.183643
-0.156317
-0.885203
2.79567
0.23636
-0.529336
3.17689
0.443666
0.0644443
-2.0303
0.635409
-1.99462
-3.29989
-0.0679435
0.385303
-1.23253
-2.84102
-2.02095
-1.90721
0.497593
0.0441005
-0.769802
-0.212132
0.916103
-2.0918
-0.214357
-2.73614
-1.87437
-0.963815
-1.81968
-0.720841
0.157291
-0.625367
-0.86647
0.756548
-1.66572
-0.252091
1.00694
0.533392
-1.65953
-1.40407
0.143172
0.27986
1.69734
-1.67954
1.55435
-0.180043
-2.30651
-1.20189
-0.516171
-1.10414
-0.147453
1.53751
1.63632
1.55565
-1.86845
-0.242312
-0.123475
-2.4449
0.102849
-0.41999
-0.8604
1.2148
-0.933661
-0.533222
-0.775208
1.36218
-1.31346
0.344623
0.580687
-2.33124
-0.502351
-1.76022
-1.10439
-0.680966
0.670357
-0.225907
-2.88486
1.11447
0.868575
-0.660265
-0.92086
0.283141
1.60987
1.73115
0.352101
-2.27456
-2.27804
-1.42734
2.61019
-1.34739
-3.03572
-1.00567
-2.4768
1.66329
-3.2609
-2.25728
-0.499204
-2.1436
0.269205
-1.26139
0.83915
2.91894
1.01181
0.503733
1.7025
1.01827
0.627091
-0.212409
-0.512616
-0.823324
-0.176121
0.168529
0.719032
-1.77881
-0.447143
1.40511
-0.20707
-1.44007
-0.096997
-1.11386
-0.440701
0.541879
2.21051
-0.0469916
0.812822
-1.56403
0.878584
0.0462572
0.608836
-4.51168
1.03543
-0.407876
-0.0626168
-1.30136
-0.675943
-2.62771
-1.86598
-0.607357
0.631591
-1.00377
2.05563
0.495388
-0.509405
-1.41293
0.640256
1.07031
1.70826
-0.245809
1.09775
-0.741866
1.50444
-1.27894
-0.812683
-1.42522
-3.22807
-0.545668
-0.864881
0.308911
-2.38291
-0.753094
-0.408757
3.04715
0.0690729
0.932534
1.84103
3.48018
1.0233
-1.87366
-1.20052
-0.76032
-0.610303
-1.00667
1.6602
-0.748135
-3.44204
-1.25146
1.05019
0.107853
-0.19599
1.50195
-0.236882
2.34022
1.37122
1.40746
0.977264
-0.33241
0.524913
1.90903
0.431257
-1.03046
-1.17617
1.73241
-0.784833
-2.51765
-1.04702
0.990925
-0.652694
0.0847672
-0.464352
-0.115595
0.28176
0.976458
-1.3221
-1.75651
0.698632
-1.21474
1.47077
0.497313
-2.45469
-0.373986
1.79803
-2.19763
-0.864773
-3.99693
2.07739
-0.710679
-2.79546
0.691679
-2.0259
0.347797
-0.54021
-2.36871
-2.4843
2.06036
0.37555
2.4463
-0.430306
3.28096
0.922032
2.80723
0.976345
-1.49484
0.316244
-1.59984
-0.261103
-2.8695
0.0351539
0.760635
0.309131
0.390968
0.647238
1.48956
1.82893
2.65976
0.56458
0.91527
2.19493
-0.497513
0.721472
1.15492
-0.548528
1.00739
-0.83789
-1.78308
-2.78065
-0.120238
0.00128226
-0.264797
0.946958
3.42268
3.89372
-0.604376
3.40103
1.6596
2.79641
1.72839
0.501772
0.503688
-1.89947
-2.36062
-1.30322
-1.20439
-2.1047
0.394602
0.275242
0.233116
-0.604117
2.53078
-3.09713
0.508505
0.368766
1.89482
1.20294
1.40113
0.921002
0.738281
1.70224
-1.03052
-1.08855
-0.631939
1.34561
-1.83365
0.0670349
-0.586883
0.773867
0.658609
1.5157
-0.0772257
-0.0120922
-0.380371
1.62914
3.14498
-1.205
0.258375
4.05462
0.93847
1.47754
1.69017
-0.932704
2.20263
0.833544
-0.58314
-0.378293
-0.432131
-0.946425
-1.52405
0.244359
0.333631
-1.16949
3.05419
0.81812
-0.0720819
1.47797
1.8582
0.854484
1.39087
3.7581
-0.361344
-0.635317
-1.53914
1.3308
-0.359508
1.3846
0.379306
-0.474174
-0.722528
0.823041
0.410479
1.26513
0.471658
2.14467
1.36625
2.69271
0.199858
1.37088
-3.94975
0.706183
1.16519
0.224104
-1.11364
-0.375049
-0.0455073
-1.59852
0.66021
0.205753
0.905327
2.34871
-0.750064
-0.366538
-1.30359
-2.82742
-0.53203
1.78807
1.69155
1.49007
-1.24868
0.834871
0.658354
0.783089
-1.45396
-0.341756
1.97009
2.23408
-0.393038
0.00374734
2.14527
0.79785
0.243533
-0.279123
2.21691
2.8688
1.91163
-1.31472
-1.40102
-1.20354
-1.58815
-0.774578
-0.960052
-1.77807
-0.0825386
1.71427
-0.49981
-0.403611
0.677351
-0.188406
-3.05713
0.150539
0.287813
1.17806
2.65851
-0.754243
2.36557
3.32969
2.34405
3.47286
2.77957
4.50991
1.08804
3.57561
1.38657
1.90744
1.24064
2.33234
-0.148061
-0.0298869
1.93862
2.89592
3.50997
4.26142
2.62108
2.69219
3.10824
2.61157
0.371442
4.28505
1.09281
1.81861
0.186507
1.32383
-0.00170319
-0.262961
-0.116662
-0.175404
1.11802
0.51951
-0.00744649
-0.108196
3.66505
-0.165479
-0.297348
-0.0519756
3.96222
0.552968
1.93385
2.78492
1.86602
1.15405
0.902551
2.88637
3.05969
-0.393402
0.770018
2.17943
1.53366
1.80981
1.90853
1.29146
1.58081
3.00755
1.56347
0.77453
3.02854
3.61438
1.69532
2.3701
3.44601
2.66382
2.30852
0.653323
-2.07609
1.57887
-1.24311
2.79771
1.99715
0.697268
0.778135
1.92699
1.21869
1.78687
3.03019
0.723276
1.80723
2.05961
-0.778171
3.28517
0.851793
1.77084
0.6858
-0.829433
-0.514994
2.0854
2.23491
1.78238
1.08663
1.60721
1.95261
0.231327
0.0716107
1.21116
1.3591
0.291549
-1.58706
-0.71747
1.28691
-0.532004
0.941924
1.52589
-0.00357532
1.0473
-1.04257
0.486448
-2.0412
0.301637
-0.810548
0.597792
-1.1267
-0.6215
2.43085
1.53059
1.31882
-0.229916
3.65258
-1.4775
0.336117
0.487246
0.584438
-1.30165
-0.319774
-0.390425
-2.12421
0.69034
-1.11007
-0.281437
1.35942
-0.413697
-1.3415
0.517365
1.59173
1.01883
0.260308
1.16027
2.33673
1.02487
0.332612
0.539206
0.750272
-2.78798
-2.20642
0.101486
0.0874797
-1.70463
1.14255
-1.83051
1.20471
-1.10649
2.3314
0.110125
1.32743
-0.349849
-1.9159
2.72595
0.333179
6.80764
4.96293
4.3435
7.78047
1.95187
1.15335
1.69357
-0.970939
3.88989
5.4066
2.87475
1.75658
0.551028
1.12296
4.16857
0.474193
2.52424
4.22285
6.18578
7.90025
3.83848
3.04942
4.2734
1.30837
6.08705
1.52752
2.41437
1.68689
1.37725
3.10252
3.64356
4.33701
0.716534
2.71887
2.1554
3.16764
3.16442
2.03933
4.26459
4.74734
4.1821
3.25292
4.54439
3.57097
2.7577
4.43287
4.58541
2.90816
1.48127
0.00890689
3.34276
2.38456
1.37415
0.356256
1.6635
2.02263
0.0376372
2.77741
0.490055
2.0341
2.32849
1.57977
3.73637
1.51808
1.3452
2.59459
4.84023
0.765578
2.62792
0.831357
1.92362
0.105934
1.16764
1.62401
1.23634
2.67883
1.5582
2.58443
0.370396
2.6644
1.49432
1.36239
1.56563
1.21408
0.700022
-0.453714
-0.669266
0.36659
-1.2071
2.02407
0.826911
1.26882
1.24456
3.62236
2.27561
-0.156678
-0.479895
1.27782
0.559088
1.27561
0.491733
0.960335
1.12227
2.93018
1.06475
-0.450395
0.517022
-1.17734
0.933549
4.41947
-0.8593
2.00956
1.94237
-0.539264
1.16731
2.6335
0.338081
2.48779
1.55175
1.98488
-0.463953
-0.620247
1.69055
0.601177
0.139079
0.0798752
0.102151
0.783513
-2.26569
2.27584
-1.22428
2.33968
0.185301
-0.722625
0.875988
-0.671347
2.7974
1.85695
-0.885046
-1.11924
-1.39019
1.93226
1.4673
-2.39282
0.560646
2.0508
0.304406
-1.84702
-2.27003
0.553433
-2.08236
-0.559617
1.05792
0.0133713
0.592273
-0.14846
1.29068
0.772949
-2.22329
1.13877
9.12728
6.82453
5.39362
6.35348
3.98309
4.42375
4.50559
4.04735
3.45605
2.64327
1.96967
3.30488
4.36115
4.01998
5.70741
3.67005
8.27586
6.19486
5.25602
6.60182
7.37145
0.741939
3.71657
-0.539477
2.68746
-0.357104
3.63577
0.470831
4.28387
0.584872
0.0795945
2.48108
-0.510085
4.27354
0.399395
6.09899
0.645355
4.08254
0.204886
6.5605
5.85124
3.8548
7.26627
2.89578
2.64725
1.15399
3.66467
1.00003
2.62432
1.73922
2.01982
1.70464
-0.194908
1.5471
3.52619
3.46733
4.54571
7.07891
2.80172
2.08575
3.70397
3.49206
3.09237
1.36297
1.23266
-0.165409
1.67262
2.26832
4.67333
1.90904
3.21757
0.240006
2.36632
1.63072
0.631317
4.88341
3.92743
0.855501
3.8425
2.61748
1.43945
-0.532538
3.45103
0.259478
2.02803
1.46605
3.32789
0.374247
1.20901
0.670118
1.04196
4.5869
2.50192
-0.959017
2.7416
1.04278
-0.0901463
0.171127
2.8083
1.96842
3.61943
0.8543
0.997765
4.43835
0.43124
0.576771
2.57776
1.32503
0.331459
1.91834
3.88228
-0.443878
0.705001
1.76913
0.936186
1.89928
2.57183
2.27597
1.10564
-0.689244
2.56103
0.705333
-0.391025
0.167361
0.316923
2.12164
-0.0925677
-0.417415
-1.50518
2.41474
-0.648983
0.434343
2.47443
1.23246
-0.315118
1.19734
-0.698616
2.09367
1.40868
-1.81903
-1.21009
-1.41384
2.54535
1.51932
1.95806
0.380364
0.356731
0.362258
-1.00416
-0.703376
-0.291135
-0.199405
0.398894
1.02578
-0.82751
-0.321181
2.38115
-0.245527
0.794109
0.781881
10.0024
7.73004
8.4711
6.87293
3.83449
5.01095
7.49538
5.59814
2.66621
6.13248
6.16638
5.81992
2.87082
6.57077
6.29609
4.94473
5.24471
5.30789
6.56628
9.7081
8.27269
6.40628
4.62876
6.78229
3.86326
3.63488
6.26748
4.51001
5.5238
4.32746
2.28176
1.18395
4.77274
3.96377
3.97074
3.7208
5.35859
4.27464
4.54163
5.84451
4.98714
5.91448
4.14085
4.84615
5.29801
1.84356
3.11345
0.88421
2.49869
2.10468
3.40627
3.44597
4.65318
2.21734
1.69891
5.55017
2.76142
4.31365
3.92955
6.81453
4.53748
4.26842
5.12949
2.47446
2.24334
4.41036
4.07033
4.05164
1.41517
4.33727
0.677281
2.24009
3.03962
3.22914
4.30309
3.71782
4.5228
3.17211
4.07347
5.10136
1.59302
2.98843
5.32079
2.68801
2.16428
0.174148
4.71901
2.50474
3.13811
1.59969
4.14583
3.09607
2.74358
2.4214
2.29998
-0.723993
3.41737
3.75827
5.13335
3.84936
2.84835
-0.021835
2.90236
3.11578
2.63901
1.22624
0.215927
1.85735
1.99253
-2.4908
-0.438682
0.675793
1.32218
0.375709
-0.376782
4.27813
3.00586
-0.20382
6.93787
3.07591
1.35857
2.74195
1.73937
1.52056
0.674371
1.05154
-0.925743
-0.496914
0.177518
1.13016
-0.673063
-1.63236
0.962679
-0.824984
0.262777
0.829731
-0.123045
1.69185
2.03569
1.44685
-0.618186
0.105733
1.67898
-0.856595
1.97241
-1.57583
2.86556
0.457792
0.076175
-3.32768
0.021756
0.369933
-1.07903
-0.154117
-2.56632
-1.24388
0.653845
-0.288256
0.0348668
0.728548
)
;

boundaryField
{
    hotSide
    {
        type            calculated;
        value           nonuniform List<scalar> 
400
(
-0.408322
2.63975
-0.282731
-0.500112
-0.182196
1.522
-2.66591
-1.46239
-0.865867
-1.30051
-1.72948
-2.31768
0.275081
0.653705
2.19619
2.39333
3.87257
7.3295
9.62873
10.4841
3.10396
2.31452
0.203691
0.495625
2.78848
-0.545038
-1.88696
-3.46352
-3.04516
-0.61901
-1.23487
1.16644
-1.76317
-0.0609471
2.35923
3.26262
2.92227
5.51722
7.35571
8.23899
3.90486
1.52001
3.65046
0.189499
-2.435
-0.30107
-1.06631
-1.32892
-1.30157
-3.92501
-2.73141
-0.169303
-0.461453
1.74669
1.02275
1.20641
4.08671
4.93031
5.95445
9.00704
5.8135
1.89819
2.89033
1.01163
4.08575
-1.26861
-3.64625
-2.18531
-2.54043
-1.45626
-3.55849
-3.55921
-0.907033
-0.850094
-1.56155
1.59567
3.42847
8.3991
6.94318
7.43506
4.64627
6.34968
3.10688
1.3336
-0.146566
-0.0211433
1.36491
-1.28694
0.905082
-2.01612