/*--------------------------------*- C++ -*----------------------------------*\
| =========                 |                                                 |
| \\      /  F ield         | OpenFOAM: The Open Source CFD Toolbox           |
|  \\    /   O peration     | Version:  2212                                  |
|   \\  /    A nd           | Website:  www.openfoam.com                      |
|    \\/     M anipulation  |                                                 |
\*---------------------------------------------------------------------------*/
FoamFile
{
    version     2.0;
    format      ascii;
    arch        "LSB;label=32;scalar=64";
    class       volScalarField;
    location    "0";
    object      T;
}
// * * * * * * * * * * * * * * * * * * * * * * * * * * * * * * * * * * * * * //

dimensions      [0 0 0 1 0 0 0];

internalField   nonuniform List<scalar> 
3200
(
337.958
338.776
339.625
340.116
340.942
341.285
341.772
342.145
342.237
342.511
342.242
342.232
341.851
341.709
341.145
340.45
339.737
339.108
338.268
337.669
333.038
333.769
334.456
334.882
335.627
335.899
336.326
336.634
336.723
336.961
336.695
336.696
336.401
336.261
335.776
335.125
334.507
334.008
333.285
332.802
327.997
328.701
329.253
329.632
330.29
330.488
330.796
331.093
331.15
331.356
331.133
331.102
330.89
330.753
330.375
329.767
329.243
328.869
328.229
327.904
322.928
323.573
324.04
324.312
324.879
325.031
325.259
325.504
325.572
325.697
325.59
325.528
325.339
325.24
324.955
324.38
323.929
323.678
323.141
322.921
317.827
318.37
318.749
318.936
319.428
319.47
319.673
319.906
319.949
319.983
320.007
319.904
319.754
319.658
319.498
318.963
318.636
318.47
318.053
317.888
312.677
313.144
313.444
313.532
313.932
313.863
314.058
314.244
314.281
314.29
314.359
314.255
314.129
314.072
314.012
313.55
313.336
313.233
312.916
312.824
307.548
307.887
308.078
308.145
308.409
308.312
308.409
308.559
308.569
308.587
308.641
308.598
308.495
308.458
308.475
308.11
307.992
307.947
307.765
307.724
302.55
302.644
302.702
302.727
302.831
302.792
302.833
302.88
302.87
302.886
302.892
302.886
302.84
302.821
302.854
302.707
302.679
302.674
302.607
302.608
338.756
339.836
340.568
341.361
341.882
342.335
343.069
343.294
343.483
343.645
343.492
343.492
343.227
342.933
342.208
341.62
340.845
340.181
339.377
338.603
333.699
334.614
335.256
335.944
336.347
336.805
337.39
337.594
337.76
337.914
337.756
337.808
337.521
337.245
336.669
336.125
335.489
334.853
334.194
333.56
328.569
329.351
329.911
330.527
330.821
331.218
331.663
331.847
331.996
332.153
331.998
332.032
331.787
331.52
331.119
330.604
330.12
329.483
329.001
328.512
323.394
324.099
324.527
325.003
325.256
325.58
325.921
326.035
326.241
326.353
326.241
326.209
326.037
325.795
325.516
325.054
324.706
324.139
323.781
323.372
318.208
318.772
319.159
319.489
319.695
319.936
320.15
320.232
320.456
320.54
320.463
320.4
320.273
320.056
319.93
319.512
319.269
318.826
318.551
318.254
313.012
313.421
313.72
313.929
314.109
314.261
314.37
314.449
314.66
314.739
314.65
314.558
314.495
314.345
314.294
313.934
313.794
313.493
313.291
313.097
307.8
308.073
308.258
308.357
308.483
308.612
308.596
308.679
308.827
308.899
308.81
308.736
308.718
308.617
308.582
308.366
308.299
308.129
307.951
307.893
302.615
302.707
302.774
302.805
302.812
302.908
302.882
302.913
302.982
302.994
302.943
302.915
302.917
302.876
302.886
302.781
302.791
302.714
302.658
302.645
339.985
341.325
341.726
342.793
343.334
344.049
344.446
344.82
344.806
345.207
344.893
345.104
344.517
344.336
343.605
343.134
342.322
341.721
340.759
339.859
334.772
335.895
336.237
337.143
337.602
338.218
338.596
338.915
338.886
339.24
338.938
339.155
338.627
338.43
337.832
337.386
336.733
336.197
335.391
334.585
329.485
330.402
330.722
331.497
331.867
332.368
332.716
332.976
332.917
333.234
333.007
333.216
332.729
332.485
332.05
331.624
331.11
330.651
329.969
329.241
324.183
324.875
325.183
325.81
326.119
326.53
326.805
326.989
326.957
327.229
327.062
327.214
326.852
326.561
326.225
325.885
325.46
325.083
324.528
323.928
318.846
319.376
319.605
320.082
320.374
320.68
320.887
320.998
320.996
321.191
321.041
321.192
320.927
320.652
320.362
320.18
319.844
319.54
319.106
318.643
313.499
313.873
313.996
314.394
314.589
314.825
314.997
314.973
315.019
315.17
315.031
315.141
314.966
314.746
314.53
314.436
314.191
314.002
313.681
313.379
308.149
308.336
308.418
308.658
308.739
308.916
309.028
308.971
309.051
309.141
309.035
309.092
309.011
308.896
308.749
308.653
308.513
308.419
308.228
308.094
302.735
302.797
302.827
302.9
302.92
303.008
303.038
303.011
303.045
303.056
303.013
303.027
303.019
302.988
302.932
302.894
302.849
302.824
302.77
302.723
341.514
342.572
343.331
344.213
344.966
345.421
346.052
346.431
346.647
346.834
346.58
346.599
346.116
345.905
345.528
344.826
343.988
343.148
342.34
341.449
336.03
336.936
337.58
338.345
339.023
339.381
339.982
340.299
340.451
340.658
340.408
340.446
339.999
339.789
339.47
338.9
338.192
337.429
336.695
335.962
330.538
331.305
331.834
332.445
333.058
333.309
333.912
334.118
334.241
334.407
334.239
334.252
333.888
333.678
333.397
332.948
332.347
331.673
331.091
330.48
325.04
325.71
326.081
326.591
327.098
327.263
327.827
327.946
328.008
328.159
328.049
328.058
327.794
327.544
327.33
326.978
326.448
325.936
325.442
324.948
319.539
320.079
320.307
320.708
321.115
321.189
321.676
321.766
321.823
321.936
321.824
321.844
321.676
321.419
321.299
321.023
320.565
320.157
319.82
319.403
314.002
314.372
314.559
314.805
315.116
315.162
315.515
315.587
315.596
315.662
315.561
315.637
315.513
315.304
315.22
315.063
314.685
314.383
314.16
313.876
308.422
308.645
308.765
308.933
309.085
309.135
309.327
309.406
309.369
309.417
309.352
309.423
309.317
309.197
309.125
309.075
308.81
308.656
308.493
308.303
302.815
302.93
302.937
303.022
303.034
303.071
303.122
303.162
303.136
303.16
303.168
303.168
303.132
303.1
303.071
303.047
302.961
302.914
302.839
302.776
342.94
344.11
344.842
345.813
346.424
346.853
347.556
348.021
348.176
348.479
348.225
348.315
347.939
347.555
347.131
346.356
345.606
344.758
343.737
342.967
337.294
338.277
338.892
339.736
340.252
340.615
341.272
341.644
341.778
342.078
341.862
341.916
341.562
341.209
340.855
340.268
339.536
338.791
337.898
337.315
331.615
332.467
332.979
333.664
334.096
334.376
335
335.288
335.384
335.625
335.45
335.504
335.184
334.917
334.607
334.159
333.503
332.847
332.126
331.641
325.907
326.586
327.01
327.572
327.912
328.126
328.685
328.925
329.025
329.159
328.984
329.086
328.787
328.607
328.356
327.988
327.422
326.891
326.3
325.929
320.161
320.693
321.055
321.444
321.712
321.893
322.354
322.523
322.631
322.684
322.505
322.657
322.412
322.294
322.054
321.815
321.365
320.932
320.482
320.162
314.399
314.793
315.047
315.309
315.509
315.636
316.007
316.109
316.197
316.231
316.057
316.217
316.046
315.943
315.761
315.625
315.252
314.961
314.636
314.424
308.642
308.89
309.031
309.212
309.307
309.38
309.625
309.669
309.702
309.768
309.643
309.761
309.643
309.61
309.431
309.411
309.144
308.976
308.786
308.656
302.889
302.974
303.032
303.082
303.13
303.127
303.233
303.239
303.236
303.272
303.249
303.267
303.226
303.224
303.158
303.148
303.062
303.015
302.958
302.888
344.419
345.364
346.348
347.307
347.9
348.65
349.151
349.561
350.053
350.251
350.128
349.838
349.689
349.07
348.697
348.082
347.237
346.391
345.262
344.485
338.525
339.329
340.222
341.023
341.563
342.25
342.646
343.049
343.348
343.636
343.49
343.204
343.051
342.505
342.223
341.741
340.961
340.233
339.228
338.58
332.651
333.324
334.104
334.761
335.227
335.817
336.151
336.493
336.706
337.007
336.824
336.581
336.436
335.964
335.679
335.302
334.702
334.041
333.189
332.663
326.752
327.272
327.941
328.471
328.861
329.332
329.667
329.898
330.129
330.338
330.165
330.007
329.81
329.392
329.152
328.902
328.38
327.827
327.158
326.732
320.849
321.204
321.739
322.193
322.469
322.863
323.166
323.303
323.513
323.636
323.467
323.395
323.178
322.789
322.673
322.517
322.046
321.611
321.108
320.784
314.917
315.143
315.546
315.891
316.083
316.385
316.606
316.641
316.823
316.906
316.766
316.734
316.561
316.257
316.173
316.106
315.746
315.439
315.077
314.805
308.973
309.093
309.344
309.594
309.658
309.844
309.966
309.983
310.108
310.16
310.075
310.043
309.984
309.752
309.725
309.694
309.464
309.24
309.046
308.869
303.015
303.047
303.142
303.22
303.228
303.291
303.356
303.349
303.393
303.396
303.392
303.37
303.38
303.253
303.254
303.257
303.177
303.093
303.035
302.964
345.842
347.031
347.846
348.843
349.604
350.473
350.745
351.187
351.686
351.709
351.772
351.418
351.135
350.66
350.258
349.575
348.677
347.629
346.758
345.888
339.776
340.799
341.518
342.364
343.008
343.751
344.064
344.374
344.792
344.853
344.917
344.579
344.329
343.853
343.556
343.028
342.156
341.287
340.585
339.834
333.699
334.562
335.197
335.876
336.414
337.028
337.336
337.571
337.946
337.995
338.033
337.767
337.527
337.092
336.831
336.462
335.645
334.944
334.398
333.696
327.631
328.327
328.793
329.429
329.834
330.327
330.609
330.761
331.072
331.113
331.112
330.952
330.744
330.332
330.184
329.859
329.163
328.581
328.196
327.605
321.535
322.069
322.357
322.921
323.221
323.606
323.881
323.932
324.196
324.203
324.219
324.104
323.956
323.629
323.532
323.228
322.687
322.174
321.959
321.487
315.392
315.806
315.965
316.373
316.617
316.9
317.142
317.083
317.318
317.276
317.327
317.208
317.154
316.916
316.862
316.596
316.199
315.809
315.693
315.366
309.254
309.535
309.577
309.842
309.979
310.17
310.318
310.257
310.451
310.399
310.419
310.34
310.289
310.198
310.122
309.941
309.708
309.495
309.416
309.237
303.094
303.211
303.216
303.293
303.355
303.42
303.466
303.428
303.515
303.501
303.496
303.464
303.435
303.434
303.363
303.331
303.268
303.169
303.153
303.112
347.365
348.318
349.335
350.082
351.203
351.765
352.555
352.907
353.157
353.27
353.243
353.116
352.858
352.389
351.902
350.994
350.182
349.265
348.234
347.254
341.107
341.881
342.799
343.467
344.388
344.927
345.592
345.906
346.123
346.219
346.173
346.017
345.847
345.446
344.959
344.166
343.508
342.705
341.844
340.986
334.825
335.44
336.284
336.847
337.593
338.064
338.562
338.851
339.068
339.095
339.111
338.922
338.8
338.494
338.014
337.355
336.83
336.183
335.454
334.695
328.547
329.02
329.733
330.227
330.767
331.177
331.608
331.805
331.995
331.989
332.024
331.829
331.74
331.508
331.089
330.593
330.181
329.607
329.022
328.415
322.238
322.574
323.142
323.57
323.933
324.3
324.597
324.713
324.912
324.907
324.906
324.724
324.698
324.52
324.211
323.771
323.502
323.075
322.599
322.119
315.873
316.164
316.56
316.869
317.127
317.399
317.612
317.676
317.816
317.853
317.762
317.719
317.676
317.515
317.316
316.944
316.785
316.526
316.184
315.808
309.537
309.735
309.975
310.138
310.277
310.474
310.568
310.638
310.722
310.743
310.65
310.672
310.636
310.522
310.424
310.173
310.109
309.908
309.729
309.486
303.203
303.279
303.34
303.401
303.44
303.508
303.546
303.568
303.606
303.628
303.564
303.597
303.571
303.526
303.483
303.402
303.388
303.318
303.267
303.205
348.293
349.479
350.728
351.524
352.468
353.181
353.967
354.562
354.721
354.684
354.653
354.541
354.343
353.869
353.382
352.535
351.797
350.81
349.65
348.483
341.9
342.939
343.999
344.689
345.503
346.124
346.829
347.298
347.438
347.398
347.353
347.326
347.095
346.752
346.285
345.537
344.925
344.042
343.042
342.049
335.484
336.366
337.293
337.823
338.529
339.054
339.612
340.033
340.175
340.133
340.059
340.075
339.866
339.644
339.152
338.522
338.028
337.3
336.407
335.618
329.038
329.782
330.557
330.952
331.587
332.012
332.373
332.741
332.901
332.866
332.765
332.817
332.663
332.467
332.071
331.503
331.149
330.544
329.78
329.188
322.584
323.177
323.821
324.066
324.566
324.933
325.21
325.481
325.653
325.617
325.506
325.521
325.433
325.286
325.006
324.494
324.214
323.785
323.159
322.727
316.16
316.576
317.035
317.213
317.589
317.833
318.06
318.176
318.327
318.324
318.247
318.215
318.183
318.103
317.908
317.536
317.295
317.004
316.547
316.256
309.728
309.976
310.243
310.386
310.564
310.724
310.858
310.916
310.987
311.02
310.948
310.912
310.954
310.923
310.771
310.511
310.387
310.222
309.942
309.758
303.274
303.346
303.416
303.495
303.531
303.593
303.652
303.655
303.681
303.713
303.648
303.656
303.661
303.689
303.607
303.526
303.475
303.434
303.331
303.277
349.556
350.652
351.895
352.834
353.955
354.518
355.107
355.767
355.9
356.091
356.313
356.054
355.771
355.095
354.721
353.989
353.135
352.075
350.851
349.93
343.013
343.933
344.992
345.827
346.757
347.254
347.808
348.37
348.482
348.658
348.841
348.631
348.358
347.766
347.465
346.813
346.124
345.121
344.044
343.268
336.424
337.193
338.056
338.782
339.609
340.015
340.471
340.93
341.1
341.189
341.34
341.156
340.956
340.408
340.219
339.64
339.055
338.167
337.235
336.633
329.862
330.447
331.166
331.719
332.46
332.771
333.102
333.499
333.657
333.708
333.849
333.674
333.524
333.075
332.928
332.448
331.973
331.259
330.443
329.975
323.277
323.671
324.24
324.678
325.286
325.536
325.735
326.06
326.247
326.233
326.353
326.217
326.06
325.718
325.618
325.227
324.838
324.354
323.677
323.332
316.692
316.93
317.319
317.642
318.115
318.269
318.387
318.592
318.767
318.697
318.853
318.737
318.633
318.388
318.292
318.005
317.719
317.44
316.915
316.649
310.04
310.197
310.398
310.579
310.928
310.948
311.02
311.158
311.299
311.228
311.316
311.261
311.182
311.054
310.994
310.813
310.645
310.511
310.162
309.991
303.38
303.423
303.496
303.549
303.681
303.677
303.695
303.736
303.791
303.758
303.797
303.773
303.745
303.692
303.68
303.619
303.558
303.541
303.401
303.355
350.859
351.628
353.024
354.275
355.197
355.82
356.462
357.149
357.276
357.424
357.371
357.182
357.189
356.63
355.958
355.251
354.363
353.31
352.095
351.108
344.097
344.762
345.987
347.078
347.846
348.399
348.932
349.562
349.616
349.75
349.774
349.505
349.595
349.094
348.51
347.909
347.127
346.181
345.186
344.387
337.324
337.906
338.891
339.855
340.534
340.966
341.368
341.954
341.988
342.117
342.153
341.899
341.997
341.514
341.037
340.539
339.903
339.092
338.291
337.671
330.592
331.064
331.797
332.643
333.163
333.534
333.847
334.339
334.378
334.464
334.51
334.274
334.391
333.981
333.593
333.207
332.706
332.008
331.385
330.864
323.822
324.225
324.702
325.415
325.831
326.153
326.356
326.715
326.765
326.835
326.859
326.65
326.741
326.435
326.158
325.853
325.475
324.93
324.472
324.005
317.052
317.334
317.615
318.172
318.487
318.721
318.845
319.083
319.123
319.171
319.203
319.051
319.116
318.889
318.695
318.478
318.218
317.834
317.524
317.163
310.25
310.433
310.589
310.924
311.147
311.293
311.344
311.46
311.458
311.502
311.559
311.485
311.472
311.383
311.197
311.108
310.976
310.727
310.547
310.305
303.433
303.503
303.555
303.659
303.754
303.799
303.8
303.833
303.838
303.859
303.877
303.869
303.825
303.826
303.743
303.686
303.688
303.602
303.545
303.448
351.829
353
354.248
355.401
356.378
357.003
357.847
358.481
358.77
358.87
358.639
358.442
358.347
357.782
357.206
356.5
355.49
354.473
353.331
352.185
344.968
345.967
347.022
348.065
348.894
349.436
350.185
350.754
350.939
351.045
350.847
350.709
350.614
350.057
349.569
348.949
348.131
347.217
346.263
345.251
338.126
338.887
339.786
340.709
341.409
341.831
342.505
342.979
343.122
343.156
343.037
342.974
342.867
342.374
341.93
341.421
340.793
339.978
339.196
338.316
331.243
331.806
332.529
333.37
333.946
334.192
334.749
335.176
335.274
335.298
335.229
335.201
335.073
334.697
334.325
333.917
333.449
332.706
332.1
331.323
324.313
324.742
325.312
325.977
326.417
326.576
327.032
327.392
327.431
327.465
327.413
327.44
327.328
327.02
326.748
326.399
326.05
325.448
324.987
324.382
317.434
317.673
318.135
318.556
318.883
319.002
319.367
319.598
319.599
319.611
319.575
319.661
319.534
319.279
319.163
318.846
318.618
318.178
317.868
317.422
310.503
310.64
310.92
311.16
311.332
311.385
311.661
311.779
311.777
311.77
311.778
311.875
311.745
311.551
311.511
311.292
311.208
310.893
310.739
310.439
303.536
303.58
303.65
303.715
303.809
303.817
303.933
303.947
303.954
303.949
303.94
303.991
303.941
303.872
303.869
303.811
303.76
303.641
303.584
303.513
352.92
354.112
355.375
356.587
357.618
358.249
358.983
359.477
359.689
359.879
359.783
359.847
359.454
358.801
358.241
357.761
356.645
355.657
354.302
353.125
345.938
346.917
347.973
349.122
349.984
350.506
351.15
351.599
351.764
351.951
351.826
351.895
351.508
351.005
350.501
350.104
349.115
348.298
347.098
346.074
338.927
339.713
340.602
341.631
342.323
342.776
343.329
343.693
343.833
343.99
343.856
343.955
343.613
343.182
342.756
342.426
341.6
340.905
339.879
338.992
331.881
332.517
333.242
334.108
334.655
335.057
335.481
335.77
335.874
336.067
335.871
335.999
335.743
335.326
334.994
334.725
334.065
333.491
332.638
331.934
324.862
325.274
325.937
326.549
326.958
327.314
327.612
327.87
327.924
328.09
327.911
328.076
327.845
327.474
327.241
327.018
326.533
326.083
325.377
324.846
317.774
318.036
318.581
319.009
319.284
319.553
319.779
319.969
319.965
320.069
319.975
320.117
319.915
319.6
319.492
319.276
318.96
318.671
318.129
317.751
310.711
310.825
311.161
311.45
311.57
311.735
311.892
312.014
312.001
312.066
312.01
312.136
311.98
311.769
311.739
311.617
311.383
311.203
310.883
310.655
303.61
303.611
303.737
303.867
303.882
303.927
304.007
304.023
304.014
304.061
304.048
304.077
304.006
303.955
303.947
303.904
303.816
303.756
303.656
303.584
353.733
355.044
356.496
357.664
358.524
359.183
359.93
360.266
360.822
360.907
360.978
360.977
360.488
359.982
359.291
358.627
357.568
356.708
355.379
353.988
346.626
347.733
348.968
350.035
350.747
351.333
351.968
352.265
352.731
352.811
352.852
352.893
352.452
351.99
351.438
350.782
349.878
349.181
348.029
346.859
339.512
340.43
341.374
342.352
342.937
343.445
344.006
344.274
344.619
344.706
344.701
344.794
344.44
343.982
343.535
342.988
342.191
341.637
340.672
339.711
332.373
333.111
333.823
334.7
335.154
335.595
336.064
336.267
336.525
336.641
336.565
336.685
336.376
336.024
335.642
335.182
334.558
334.089
333.299
332.538
325.237
325.76
326.277
327.01
327.352
327.703
328.131
328.25
328.458
328.547
328.432
328.539
328.306
328.06
327.744
327.356
326.926
326.567
325.865
325.332
318.023
318.408
318.763
319.338
319.522
319.797
320.145
320.166
320.357
320.402
320.285
320.413
320.239
320.08
319.851
319.543
319.295
319.015
318.483
318.088
310.824
311.023
311.283
311.66
311.703
311.891
312.123
312.137
312.226
312.247
312.143
312.246
312.207
312.046
311.893
311.725
311.626
311.426
311.124
310.864
303.603
303.685
303.768
303.918
303.93
303.965
304.07
304.074
304.094
304.115
304.059
304.1
304.091
304.031
303.971
303.933
303.914
303.842
303.738
303.637
354.592
356.005
357.257
358.284
359.248
360.007
360.817
361.519
361.623
361.752
361.956
362.084
361.485
361.116
360.358
359.614
358.411
357.628
356.301
355.045
347.355
348.594
349.702
350.518
351.406
352.028
352.742
353.307
353.444
353.564
353.69
353.852
353.316
353.001
352.326
351.727
350.652
349.982
348.813
347.745
340.095
341.162
342.09
342.804
343.51
344.041
344.633
345.132
345.298
345.368
345.428
345.504
345.165
344.831
344.231
343.801
342.908
342.304
341.303
340.409
332.838
333.702
334.418
335.065
335.641
336.102
336.519
336.951
337.148
337.165
337.144
337.224
336.976
336.686
336.176
335.849
335.144
334.628
333.8
333.126
325.531
326.214
326.791
327.334
327.76
328.111
328.412
328.74
328.932
328.902
328.881
328.996
328.757
328.55
328.129
327.898
327.353
326.971
326.307
325.843
318.257
318.73
319.2
319.555
319.869
320.069
320.268
320.535
320.672
320.676
320.603
320.752
320.55
320.406
320.103
319.943
319.541
319.314
318.755
318.558
310.967
311.232
311.545
311.761
311.929
312.069
312.169
312.332
312.411
312.402
312.374
312.464
312.381
312.282
312.076
311.959
311.734
311.636
311.24
311.147
303.682
303.763
303.859
303.943
303.99
304.051
304.081
304.11
304.152
304.14
304.142
304.176
304.158
304.106
304.053
303.991
303.916
303.903
303.758
303.744
355.073
356.429
357.783
358.957
360.136
360.89
361.649
362.299
362.444
362.79
362.847
362.887
362.342
361.985
361.336
360.505
359.287
358.439
357.07
356.002
347.789
348.955
350.132
351.103
352.186
352.762
353.431
354.037
354.111
354.462
354.495
354.527
354.045
353.766
353.184
352.45
351.406
350.692
349.487
348.584
340.457
341.487
342.477
343.228
344.164
344.65
345.202
345.756
345.809
346.132
346.101
346.097
345.741
345.53
345.006
344.433
343.528
342.944
341.915
341.183
333.171
333.984
334.8
335.437
336.133
336.559
336.971
337.447
337.5
337.727
337.71
337.671
337.429
337.281
336.801
336.402
335.63
335.158
334.326
333.761
325.837
326.434
327.104
327.597
328.103
328.472
328.732
329.149
329.225
329.325
329.326
329.304
329.147
329.027
328.592
328.373
327.728
327.351
326.719
326.317
318.459
318.888
319.39
319.74
320.071
320.351
320.494
320.881
320.922
320.941
320.967
320.923
320.869
320.759
320.418
320.314
319.828
319.543
319.121
318.831
311.094
311.352
311.644
311.835
312.056
312.242
312.312
312.562
312.549
312.589
312.609
312.588
312.563
312.461
312.264
312.196
311.92
311.75
311.49
311.333
303.719
303.805
303.879
303.953
304.051
304.087
304.12
304.188
304.206
304.224
304.231
304.238
304.22
304.186
304.124
304.074
303.998
303.957
303.859
303.805
355.865
357.105
358.477
359.871
360.842
361.595
362.396
362.997
363.358
363.511
363.585
363.402
363.132
362.61
362.051
361.162
360.145
358.996
357.804
356.523
348.473
349.537
350.71
351.899
352.774
353.42
354.084
354.593
354.911
355.06
355.092
354.961
354.746
354.281
353.826
353.06
352.167
351.099
350.086
349.003
341.055
341.96
342.91
343.932
344.703
345.247
345.788
346.152
346.497
346.658
346.628
346.47
346.343
345.948
345.573
344.947
344.162
343.239
342.415
341.479
333.629
334.368
335.124
335.978
336.596
337.075
337.483
337.777
338.082
338.216
338.174
337.973
337.924
337.603
337.319
336.818
336.152
335.394
334.722
333.966
326.189
326.735
327.332
327.973
328.5
328.865
329.129
329.403
329.66
329.753
329.694
329.494
329.556
329.249
329.052
328.659
328.138
327.564
327.008
326.429
318.74
319.111
319.518
319.998
320.378
320.614
320.791
321.062
321.212
321.274
321.237
321.087
321.146
320.896
320.742
320.474
320.14
319.732
319.313
318.885
311.232
311.449
311.704
312.003
312.261
312.373
312.47
312.667
312.731
312.782
312.755
312.677
312.721
312.545
312.453
312.288
312.113
311.851
311.613
311.356
303.774
303.843
303.922
304.014
304.116
304.145
304.177
304.239
304.268
304.292
304.272
304.262
304.266
304.212
304.185
304.116
304.048
303.953
303.882
303.799
356.355
357.656
358.854
360.174
361.39
362.034
363.206
363.58
364.018
364.284
364.122
363.936
363.669
363.422
362.642
361.801
360.494
359.43
358.394
357.247
348.927
350.015
350.998
352.211
353.214
353.771
354.805
355.105
355.533
355.748
355.546
355.442
355.203
354.992
354.332
353.523
352.438
351.519
350.686
349.63
341.475
342.332
343.142
344.178
345.072
345.532
346.432
346.611
347.024
347.213
347.005
346.931
346.724
346.537
345.996
345.301
344.38
343.651
342.887
341.983
333.975
334.644
335.315
336.139
336.917
337.281
338.051
338.127
338.478
338.681
338.465
338.424
338.254
338.11
337.643
337.057
336.321
335.746
335.076
334.393
326.445
326.937
327.494
328.125
328.723
329.035
329.597
329.652
329.981
330.083
329.941
329.885
329.768
329.648
329.3
328.851
328.288
327.813
327.264
326.785
318.879
319.263
319.672
320.118
320.522
320.743
321.182
321.21
321.442
321.465
321.397
321.385
321.265
321.192
320.94
320.632
320.211
319.877
319.463
319.131
311.352
311.559
311.835
312.104
312.322
312.472
312.731
312.733
312.925
312.855
312.809
312.877
312.796
312.737
312.555
312.396
312.162
311.921
311.685
311.526
303.795
303.865
303.978
304.07
304.142
304.188
304.27
304.268
304.332
304.3
304.278
304.317
304.292
304.284
304.205
304.166
304.078
303.996
303.918
303.861
356.581
357.859
359.387
360.69
361.9
362.542
363.481
363.985
364.291
364.559
364.794
364.383
364.109
363.746
363.108
362.192
361.135
359.671
358.465
357.506
349.138
350.21
351.475
352.652
353.657
354.195
355.023
355.444
355.734
356.024
356.162
355.783
355.549
355.271
354.723
353.91
352.957
351.714
350.711
349.859
341.623
342.549
343.545
344.576
345.437
345.886
346.582
346.984
347.194
347.484
347.528
347.205
347.019
346.801
346.334
345.637
344.774
343.78
342.957
342.249
334.096
334.846
335.639
336.542
337.191
337.563
338.129
338.466
338.649
338.917
338.933
338.639
338.461
338.318
337.964
337.368
336.613
335.863
335.185
334.61
326.503
327.16
327.707
328.429
328.952
329.23
329.67
329.958
330.034
330.326
330.325
330.032
329.877
329.816
329.586
329.079
328.478
327.918
327.401
326.948
318.956
319.433
319.838
320.312
320.666
320.894
321.219
321.422
321.443
321.667
321.698
321.451
321.342
321.291
321.161
320.75
320.364
319.993
319.629
319.282
311.408
311.645
311.924
312.206
312.402
312.565
312.745
312.863
312.884
313.017
313.077
312.872
312.838
312.8
312.724
312.429
312.27
312.023
311.761
311.572
303.82
303.89
303.993
304.082
304.151
304.223
304.288
304.326
304.305
304.377
304.362
304.281
304.296
304.303
304.274
304.154
304.136
304.039
303.952
303.885
356.934
358.193
359.601
360.829
362.166
362.746
363.807
364.419
364.642
365.057
365.072
364.88
364.343
363.951
363.108
362.559
361.425
359.992
358.722
357.665
349.418
350.467
351.709
352.773
353.912
354.363
355.324
355.844
356.043
356.391
356.406
356.212
355.766
355.424
354.676
354.252
353.215
352.012
350.905
349.99
341.839
342.702
343.799
344.683
345.635
345.981
346.792
347.284
347.512
347.737
347.723
347.493
347.163
346.898
346.295
345.881
344.994
344.015
343.124
342.32
334.265
334.927
335.893
336.592
337.326
337.655
338.344
338.733
338.897
339.069
339.016
338.792
338.547
338.433
337.935
337.509
336.764
336.024
335.325
334.644
326.592
327.22
327.941
328.498
329.047
329.339
329.833
330.16
330.295
330.375
330.312
330.153
329.929
329.976
329.509
329.17
328.558
327.983
327.497
326.944
318.929
319.498
320.006
320.375
320.727
320.981
321.356
321.553
321.627
321.7
321.649
321.538
321.355
321.44
321.133
320.802
320.376
319.982
319.669
319.205
311.33
311.724
312.027
312.266
312.421
312.597
312.843
312.966
312.974
313.044
312.981
312.939
312.839
312.886
312.677
312.45
312.208
312.012
311.852
311.543
303.792
303.932
304.038
304.106
304.164
304.249
304.295
304.343
304.353
304.357
304.33
304.32
304.29
304.329
304.238
304.158
304.075
304.031
303.974
303.867
)
;

boundaryField
{
    hotSide
    {
        type            fixedGradient;
        gradient        nonuniform List<scalar> 
400
(
387.94
404.399
420.66
436.649
452.293
467.52
482.256
496.429
509.969
522.807
534.877
546.118
556.469
565.878
574.294
581.673
587.976
593.171
597.23
600.134
397.725
414.697
431.468
447.965
464.112
479.833
495.052
509.695
523.69
536.965
549.454
561.09
571.813
581.567
590.301
597.968
604.529
609.948
614.198
617.259
406.5
423.943
441.186
458.15
474.76
490.936
506.601
521.679
536.095
549.776
562.651
574.655
585.724
595.8
604.831
612.768
619.571
625.202
629.634
632.845
414.225
432.095
449.763
467.151
484.18
500.77
516.841
532.315
547.115
561.165
574.395
586.734
598.121
608.493
617.797
625.983
633.009
638.838
643.441
646.793
420.867
439.114
457.161
474.926
492.328
509.287
525.72
541.547
556.689
571.071
584.618
597.26
608.931
619.571
629.122
637.534
644.764
650.773
655.532
659.015
426.398
444.973
463.347
481.439
499.166
516.445
533.193
549.328
564.77
579.442
593.267
606.174
618.096
628.971
638.741
647.354
654.765
660.936
665.835
669.437
430.801
449.649
468.298
486.664
504.664
522.213
539.227
555.622
571.318
586.235
600.297
613.43
625.567
636.643
646.6
655.386
662.955
669.266
674.288
677.997
434.062
453.129
471.997
490.582
508.801
526.567
543.795
560.401
576.302
591.419
605.673
618.991
631.303
642.545
652.657
661.586
669.286
675.716
680.843
684.641
436.174
455.401
474.431
493.18
511.562
529.49
546.879
563.643
579.7
594.967
609.368
622.827
635.275
646.645
656.878
665.919
673.723
680.247
685.458
689.331
437.131
456.461
475.595
494.449
512.937
530.971
548.466
565.335
581.496
596.865
611.365
624.921
637.462
648.921
659.239
668.361
676.239
682.832
688.107
692.037
436.936
456.309
475.488
494.388
512.923
531.006
548.551
565.471
581.682
597.103
611.654
625.261
637.851
649.36
659.726
668.895
676.818
683.455
688.771
692.74
435.592
454.948
474.112
492.999
511.523
529.597
547.134
564.05
580.259
595.679
610.233
623.843
636.44
647.958
658.334
667.516
675.454
682.108
687.443
691.433
433.107
452.385
471.474
490.288
508.742
526.749
544.223
561.078
577.231
592.6
607.106
620.674
633.234
644.719
655.069
664.229
672.152
678.795
684.126
688.118
429.492
448.633
467.586
486.268
504.593
522.475
539.829
556.569
572.612
587.878
602.288
615.767
628.246
639.658
649.943
659.048
666.924
673.531
678.835
682.809
424.761
443.706
462.465
480.956
499.094
516.794
533.971
550.542
566.423
581.535
595.8
609.144
621.498
632.797
642.981
651.997
659.797
666.34
671.595
675.533
418.935
437.625
456.132
474.375
492.269
509.731
526.677
543.025
558.693
573.601
587.674
600.838
613.025
624.171
634.217
643.111
650.805
657.26
662.442
666.327
412.038
430.417
448.616
466.554
484.149
501.319
517.981
534.054
549.457
564.114
577.948
590.889
602.869
613.824
623.698
632.437
639.997
646.338
651.428
655.242
404.098
422.112
439.949
457.529
474.772
491.597
507.924
523.673
538.764
553.123
566.675
579.351
591.084
601.812
611.479
620.035
627.434
633.638
638.615
642.34
395.154
412.751
430.173
447.344
464.185
480.616
496.559
511.936
526.67
540.687
553.916
566.287
577.735
588.202
597.632
605.975
613.188
619.232
624.078
627.701
385.247
402.378
419.338
436.052
452.442
468.433
483.946
498.908
513.242
526.876
539.742
551.771
562.902
573.075
582.238
590.342
597.345
603.21
607.907
611.413
)
;
    }
    coldSide
    {
        type            mixed;
        refValue        uniform 300;
        refGradient     uniform 0;
        valueFraction   uniform 0.991591;
        source          uniform 0;
        value           nonuniform List<scalar> 
400
(
300.021
300.022
300.023
300.024
300.024
300.025
300.026
300.027
300.028
300.028
300.029
300.03
300.03
300.03
300.031
300.031
300.032
300.032
300.032
300.032
300.022
300.023
300.024
300.025
300.025
300.026
300.027
300.028
300.028
300.029
300.029
300.03
300.03