/*--------------------------------*- C++ -*----------------------------------*\
| =========                 |                                                 |
| \\      /  F ield         | OpenFOAM: The Open Source CFD Toolbox           |
|  \\    /   O peration     | Version:  2212                                  |
|   \\  /    A nd           | Website:  www.openfoam.com                      |
|    \\/     M anipulation  |                                                 |
\*---------------------------------------------------------------------------*/
FoamFile
{
    version     2.0;
    format      ascii;
    arch        "LSB;label=32;scalar=64";
    class       volScalarField;
    location    "./ITHACAoutput/true/16.8";
    object      error;
}
// * * * * * * * * * * * * * * * * * * * * * * * * * * * * * * * * * * * * * //

dimensions      [0 0 0 1 0 0 0];

internalField   nonuniform List<scalar> 
3200
(
-5.44205
-3.48822
-1.86349
-0.818995
-0.226984
-0.00398134
-0.0979007
-0.0782494
-0.143734
-0.178744
-0.0322811
0.116767
0.462274
0.904217
1.30098
1.47836
1.40808
0.748781
-0.549528
-2.238
-4.5944
-2.9263
-1.53025
-0.664891
-0.163387
-0.0920954
0.0208741
-0.124396
-0.19749
-0.213975
-0.12756
0.108469
0.33041
0.580415
0.942983
1.18414
1.04696
0.44374
-0.681657
-1.92783
-3.70841
-2.49224
-1.29322
-0.558813
-0.211655
0.0186801
-0.0398846
-0.0446888
-0.248836
-0.18756
-0.206605
0.0184308
0.200009
0.504711
0.74391
0.931149
0.775398
0.350693
-0.636139
-1.69703
-3.00117
-1.97964
-0.990766
-0.410415
-0.0737878
0.00439992
0.00433033
-0.0483024
-0.125207
-0.190478
-0.095693
-0.0395727
0.199305
0.308789
0.579206
0.723591
0.598745
0.214717
-0.567275
-1.45576
-2.29792
-1.50515
-0.815142
-0.305897
-0.0896366
-0.0380926
-0.01025
-0.0723283
-0.0883409
-0.138724
-0.102306
-0.0791479
0.104662
0.260098
0.388835
0.54649
0.535849
0.111217
-0.441279
-1.20622
-1.64232
-1.12986
-0.565794
-0.222447
-0.0132176
0.0127672
0.0151253
-0.0528455
-0.0818054
-0.0735969
-0.109507
-0.0763663
0.0474689
0.192651
0.202119
0.340834
0.329179
0.073556
-0.311659
-0.840156
-0.872784
-0.661126
-0.367864
-0.110074
-0.012161
-0.0630507
-0.070254
-0.106321
-0.0875968
-0.0969661
-0.0474425
-0.0250378
-0.00689282
0.0431523
0.143847
0.184057
0.140415
0.13017
-0.262333
-0.540816
-0.37294
-0.228636
-0.101201
-0.0612381
-0.124392
0.0611105
-0.0327289
-0.0624514
0.0270021
0.0270568
-0.0144086
-0.114489
0.0372376
0.0238371
0.0743455
0.10484
0.0849254
0.0360716
-0.116908
-0.187142
-5.56596
-3.73321
-2.03309
-0.990641
-0.613962
-0.316422
-0.350158
-0.427465
-0.593246
-0.632778
-0.562939
-0.258722
0.0955805
0.476382
0.852681
1.06559
1.08535
0.477053
-0.782966
-2.30736
-4.79133
-3.13214
-1.77023
-0.845597
-0.432568
-0.267815
-0.301921
-0.406235
-0.530941
-0.595066
-0.556921
-0.375769
-0.069106
0.307784
0.705106
0.833956
0.798604
0.282551
-0.818882
-2.13191
-3.9272
-2.65313
-1.44504
-0.704158
-0.301855
-0.233814
-0.278137
-0.377966
-0.512387
-0.414664
-0.485793
-0.30817
-0.119461
0.207621
0.507787
0.712432
0.618422
0.185964
-0.768841
-1.91979
-3.1503
-2.09171
-1.13433
-0.524316
-0.199414
-0.158781
-0.196063
-0.303934
-0.384479
-0.408466
-0.442694
-0.294318
-0.106628
0.0670997
0.380665
0.52328
0.519884
0.041807
-0.666273
-1.51775
-2.38819
-1.55307
-0.879295
-0.404739
-0.244137
-0.121977
-0.175016
-0.226836
-0.319452
-0.334049
-0.318867
-0.199846
-0.115973
0.044948
0.240776
0.371684
0.31337
0.0403682
-0.550278
-1.26771
-1.72674
-1.15899
-0.626831
-0.238717
-0.16616
-0.0673694
-0.167025
-0.177782
-0.170612
-0.266198
-0.275535
-0.213173
-0.0899943
0.0772326
0.1373
0.170958
0.226921
-0.0505326
-0.447518
-0.911665
-0.979473
-0.640649
-0.364455
-0.139895
-0.124078
-0.0377022
-0.06712
-0.125229
-0.0832547
-0.155991
-0.17223
-0.0735811
-0.0671402
0.0738246
0.133971
0.099908
0.147744
0.0434123
-0.295004
-0.488991
-0.327757
-0.264793
-0.158688
-0.0733599
-0.040799
-0.0570163
-0.120856
-0.0188898
-0.0359805
-0.0427988
-0.0576477
-0.0533074
-0.0207056
0.0817046
0.00470877
0.0459496
0.0867913
0.00959519
-0.112644
-0.110553
-5.98285
-4.04758
-2.47883
-1.40591
-0.958911
-0.849378
-0.903141
-1.15941
-1.24456
-1.32962
-1.19292
-1.00221
-0.601975
-0.14177
0.294603
0.646821
0.64906
0.0719524
-1.10976
-2.68328
-4.95583
-3.43066
-2.02567
-1.14294
-0.739036
-0.684872
-0.643835
-0.963668
-1.07258
-1.10496
-1.19227
-0.914635
-0.66598
-0.18887
0.2378
0.491701
0.385376
-0.0344631
-1.08621
-2.40567
-4.12382
-2.89825
-1.66044
-0.95819
-0.691599
-0.507713
-0.671872
-0.705897
-0.895474
-1.02203
-0.956232
-0.83266
-0.59589
-0.234384
0.159465
0.364885
0.32701
-0.160577
-1.03531
-2.07912
-3.25875
-2.26452
-1.40393
-0.76187
-0.45247
-0.441552
-0.533752
-0.607297
-0.769418
-0.83016
-0.800019
-0.678717
-0.44604
-0.241958
0.0290702
0.23058
0.240766
-0.167713
-0.894765
-1.71498
-2.48771
-1.70558
-1.02318
-0.635332
-0.426524
-0.320065
-0.408494
-0.451721
-0.607829
-0.629586
-0.697645
-0.570608
-0.373897
-0.191936
0.0267005
0.121022
0.142846
-0.263997
-0.731632
-1.39295
-1.81416
-1.14536
-0.680311
-0.349178
-0.32529
-0.238824
-0.27965
-0.343047
-0.4367
-0.442556
-0.511181
-0.353935
-0.263388
-0.099889
-0.028605
0.125173
0.0825296
-0.181102
-0.539421
-1.0599
-1.13717
-0.793488
-0.451068
-0.21586
-0.133108
-0.0763437
-0.0971972
-0.230236
-0.262205
-0.29517
-0.2573
-0.218809
-0.208277
-0.146024
-0.0364373
0.0335314
-0.010457
-0.06563
-0.301264
-0.589622
-0.382677
-0.298522
-0.235865
-0.0610922
0.0366869
-0.0811186
-0.0999189
-0.076574
-0.066862
-0.111845
-0.0504707
-0.164176
-0.0349952
-0.045332
0.0283857
-0.00813211
-0.00058474
0.0168915
-0.0565053
-0.226248
-6.32799
-4.58603
-3.05221
-2.05262
-1.54229
-1.48026
-1.55957
-1.804
-1.96187
-2.02793
-1.97567
-1.77062
-1.39855
-0.900852
-0.370362
-0.0112749
0.0848362
-0.539522
-1.62302
-3.14236
-5.2859
-3.85943
-2.58028
-1.71483
-1.29802
-1.23924
-1.35576
-1.55968
-1.70982
-1.88076
-1.83774
-1.4273
-1.29603
-0.841463
-0.364643
-0.0207968
-0.072904
-0.512188
-1.5006
-2.71891
-4.44126
-3.24652
-2.03031
-1.3549
-1.03364
-1.02098
-1.12185
-1.26102
-1.40335
-1.60255
-1.51393
-1.36375
-1.07079
-0.761686
-0.420237
-0.140199
-0.106855
-0.429407
-1.35102
-2.38665
-3.49508
-2.60134
-1.70316
-1.06678
-0.889541
-0.891316
-0.837699
-1.019
-1.24623
-1.21314
-1.2949
-1.18777
-1.02256
-0.555022
-0.392957
-0.0778082
-0.179372
-0.520562
-1.17474
-1.91647
-2.71119
-2.01971
-1.31604
-0.927165
-0.716076
-0.581574
-0.651966
-0.843184
-0.89183
-0.984418
-0.995801
-0.862387
-0.7272
-0.459526
-0.282215
-0.205104
-0.212364
-0.35326
-0.98
-1.57927
-1.9083
-1.42906
-0.986133
-0.561122
-0.465249
-0.477571
-0.489888
-0.502732
-0.67568
-0.709927
-0.758916
-0.648429
-0.526751
-0.430345
-0.237135
-0.129603
-0.118468
-0.330465
-0.707358
-1.1042
-1.13526
-0.849263
-0.554627
-0.316358
-0.296974
-0.283762
-0.329767
-0.298538
-0.394961
-0.461668
-0.428585
-0.429724
-0.372931
-0.21192
-0.135105
-0.0644999
-0.101054
-0.224697
-0.449515
-0.68982
-0.382307
-0.255988
-0.130365
-0.0655431
-0.11556
-0.0585206
-0.108443
-0.0566229
-0.128919
-0.176461
-0.18736
-0.146421
-0.157365
-0.00350782
-0.0851094
0.0126337
-0.0595648
-0.0631183
-0.149155
-0.29314
-6.92992
-5.17146
-3.72988
-2.64912
-2.23909
-2.13267
-2.29668
-2.47066
-2.8196
-2.84647
-2.87764
-2.62617
-2.24186
-1.65335
-1.09879
-0.651394
-0.613984
-1.1381
-2.26938
-3.64988
-5.84973
-4.34908
-3.10184
-2.22159
-1.86726
-1.8037
-1.97848
-2.24214
-2.41395
-2.57183
-2.53513
-2.30801
-1.96442
-1.46263
-1.03676
-0.694283
-0.767652
-1.05249
-2.11543
-3.28216
-4.8752
-3.68262
-2.55576
-1.89926
-1.60655
-1.4896
-1.60032
-1.79284
-2.02191
-2.15157
-2.23134
-2.04442
-1.73142
-1.34305
-0.93556
-0.704481
-0.622231
-1.04293
-1.90009
-2.84001
-3.93487
-2.94876
-2.04055
-1.46332
-1.22045
-1.22323
-1.35414
-1.43189
-1.62082
-1.66505
-1.82009
-1.65997
-1.46812
-1.08228
-0.812679
-0.578674
-0.563994
-0.813648
-1.55181
-2.31839
-2.97087
-2.30079
-1.63152
-1.07178
-0.952958
-0.876006
-1.06882
-1.17784
-1.34455
-1.37757
-1.44596
-1.23052
-1.1515
-0.854119
-0.700008
-0.465969
-0.41665
-0.725974
-1.20031
-1.85069
-2.03644
-1.59426
-1.04655
-0.826181
-0.660689
-0.690341
-0.702047
-0.762779
-0.872323
-0.995681
-1.05449
-0.974939
-0.820604
-0.598378
-0.520344
-0.393021
-0.430283
-0.505365
-0.92459
-1.24316
-1.14952
-1.00794
-0.671094
-0.415946
-0.379438
-0.3739
-0.484755
-0.494981
-0.605574
-0.646259
-0.629175
-0.610772
-0.497976
-0.329136
-0.304389
-0.170989
-0.274427
-0.323006
-0.550514
-0.832871
-0.468164
-0.317747
-0.280465
-0.127314
-0.119969
-0.136232
-0.17297
-0.153626
-0.185716
-0.19705
-0.216057
-0.226023
-0.209292
-0.159183
-0.073951
-0.090141
-0.0992076
-0.11177
-0.228764
-0.278992
-7.52706
-5.89819
-4.32145
-3.34372
-3.0126
-2.88957
-2.96578
-3.29826
-3.51199
-3.76941
-3.70645
-3.50997
-3.07501
-2.47084
-1.80476
-1.4987
-1.42712
-1.96556
-2.93671
-4.38434
-6.38064
-5.0347
-3.74257
-2.91291
-2.4954
-2.42152
-2.53852
-2.76721
-3.10056
-3.24904
-3.26221
-3.10457
-2.68351
-2.1312
-1.69732
-1.40508
-1.34541
-1.82324
-2.63703
-3.79715
-5.24962
-4.14974
-3.11326
-2.36828
-2.12312
-2.01429
-2.11048
-2.38202
-2.56151
-2.81544
-2.83585
-2.65502
-2.25259
-1.92396
-1.5232
-1.25917
-1.27766
-1.55168
-2.29093
-3.34053
-4.23072
-3.35527
-2.45507
-1.93709
-1.64663
-1.61284
-1.7237
-1.91796
-2.13278
-2.23551
-2.2616
-2.16622
-1.90818
-1.49899
-1.26374
-1.04632
-1.02604
-1.37002
-2.01059
-2.77737
-3.27815
-2.61156
-1.99808
-1.51261
-1.2996
-1.22865
-1.33579
-1.45279
-1.63426
-1.74567
-1.78868
-1.64732
-1.46985
-1.255
-0.976104
-0.861088
-0.917363
-1.08327
-1.57969
-2.10054
-2.35932
-1.83178
-1.36877
-1.00403
-0.938194
-0.804098
-0.977658
-1.04018
-1.2438
-1.26848
-1.26773
-1.17356
-1.07966
-0.91338
-0.688915
-0.621067
-0.597388
-0.735603
-1.08936
-1.52856
-1.34693
-1.11642
-0.769963
-0.586953
-0.5492
-0.536404
-0.573182
-0.660589
-0.715743
-0.770088
-0.824143
-0.730177
-0.588304
-0.559656
-0.451247
-0.362891
-0.336391
-0.524716
-0.750966
-0.91699
-0.506932
-0.386345
-0.241357
-0.19281
-0.220055
-0.197364
-0.181728
-0.165199
-0.232619
-0.258312
-0.234787
-0.242456
-0.209818
-0.121756
-0.148288
-0.2213
-0.164026
-0.138338
-0.19008
-0.289275
-8.28159
-6.64595
-5.1959
-4.19948
-3.73465
-3.53475
-3.76717
-4.00021
-4.27309
-4.529
-4.53708
-4.31746
-3.88288
-3.28166
-2.62632
-2.27174
-2.2861
-2.68795
-3.66683
-5.05184
-6.9436
-5.61311
-4.36887
-3.50571
-3.22601
-3.045
-3.19067
-3.49169
-3.73027
-3.86901
-3.88004
-3.75594
-3.43004
-2.81611
-2.31907
-1.99623
-1.99419
-2.51393
-3.35092
-4.45621
-5.77427
-4.66677
-3.69101
-2.96919
-2.64131
-2.59128
-2.70144
-2.87054
-3.19467
-3.34389
-3.36476
-3.19367
-2.87016
-2.4695
-2.02884
-1.81477
-1.77165
-2.10174
-2.84241
-3.77451
-4.64388
-3.7959
-2.92601
-2.34574
-2.07627
-2.0306
-2.10938
-2.4422
-2.52679
-2.70074
-2.78231
-2.65335
-2.41027
-2.04723
-1.72705
-1.52319
-1.48186
-1.78778
-2.42465
-3.12318
-3.55231
-2.90652
-2.16437
-1.79159
-1.61318
-1.59374
-1.66569
-1.88002
-1.97917
-2.10245
-2.17592
-2.05225
-1.86545
-1.56618
-1.34213
-1.1796
-1.30619
-1.39625
-1.90458
-2.49893
-2.55021
-2.04286
-1.58078
-1.34138
-1.25343
-1.15055
-1.19498
-1.26884
-1.4482
-1.55027
-1.52935
-1.45041
-1.31805
-1.19478
-0.936276
-0.873498
-0.909742
-1.07954
-1.40122
-1.77531
-1.48296
-1.21835
-0.892187
-0.757256
-0.755392
-0.673873
-0.773873
-0.823086
-0.901515
-0.938383
-0.848013
-0.858635
-0.758457
-0.676351
-0.546467
-0.498062
-0.466673
-0.655082
-0.841483
-1.06349
-0.494229
-0.386397
-0.308257
-0.279633
-0.215531
-0.199009
-0.213075
-0.224536
-0.280284
-0.259758
-0.27671
-0.391966
-0.317478
-0.187295
-0.14626
-0.144905
-0.241615
-0.232897
-0.31086
-0.337495
-8.84233
-7.20773
-5.76016
-4.94428
-4.40622
-4.21251
-4.33971
-4.72215
-4.90034
-5.10127
-5.29074
-4.99312
-4.52751
-3.98703
-3.39624
-3.05373
-2.99137
-3.46396
-4.49848
-5.6997
-7.56613
-6.18894
-5.03272
-4.18259
-3.75084
-3.6731
-3.75179
-3.95773
-4.29789
-4.63131
-4.55157
-4.35496
-3.97689
-3.48443
-3.04676
-2.70391
-2.71766
-3.11142
-3.96826
-4.91901
-6.2575
-5.2079
-4.07089
-3.50638
-3.16065
-3.08542
-3.21702
-3.39476
-3.61482
-3.74111
-3.85464
-3.69285
-3.40038
-2.95369
-2.59845
-2.30339
-2.38544
-2.70272
-3.40335
-4.27184
-5.00386
-4.18997
-3.38759
-2.84158
-2.55609
-2.47468
-2.5166
-2.66401
-2.96541
-3.12265
-3.14544
-3.06243
-2.76327
-2.40693
-2.15593
-1.88165
-1.92215
-2.28145
-2.76856
-3.44309
-3.85476
-3.25264
-2.58534
-2.18885
-1.99919
-1.88274
-2.01307
-2.11944
-2.2996
-2.4443
-2.57127
-2.33876
-2.16379
-1.89957
-1.76817
-1.47958
-1.54104
-1.82036
-2.19633
-2.79763
-2.77033
-2.30199
-1.84622
-1.53736
-1.45484
-1.36153
-1.36909
-1.5504
-1.60395
-1.71266
-1.81074
-1.61785
-1.5513
-1.40305
-1.24427
-1.04686
-1.03178
-1.29458
-1.56568
-1.95958
-1.57776
-1.32382
-1.06051
-0.892792
-0.806134
-0.86279
-0.7465
-0.903882
-0.927935
-0.971157
-1.07074
-1.08057
-0.958677
-0.839742
-0.793306
-0.720635
-0.722733
-0.742501
-0.907358
-1.19127
-0.623736
-0.436443
-0.437026
-0.253333
-0.25184
-0.247334
-0.220314
-0.31783
-0.334705
-0.369508
-0.384623
-0.372179
-0.266796
-0.265454
-0.250671
-0.226471
-0.224773
-0.364921
-0.315356
-0.438874
-9.427
-7.93927
-6.55829
-5.59327
-5.13045
-4.91024
-4.9737
-5.29848
-5.627
-5.77132
-5.78678
-5.61521
-5.19105
-4.6938
-4.02131
-3.67607
-3.67992
-4.17271
-5.11034
-6.31399
-8.03096
-6.70084
-5.53458
-4.74962
-4.35331
-4.15764
-4.21844
-4.47982
-4.80344
-5.00996
-5.06836
-4.86105
-4.49527
-3.99522
-3.55932
-3.27479
-3.33577
-3.73781
-4.55904
-5.50096
-6.62399
-5.62775
-4.73381
-3.96062
-3.55499
-3.51426
-3.58687
-3.73216
-3.9425
-4.21414
-4.24596
-4.15967
-3.77771
-3.37204
-3.0473
-2.77585
-2.90711
-3.20354
-3.85527
-4.6125
-5.33053
-4.60088
-3.77364
-3.21325
-2.9569
-2.84152
-2.93774
-3.08533
-3.3406
-3.45242
-3.48703
-3.4547
-3.25782
-2.80162
-2.51165
-2.35062
-2.38259
-2.62606
-3.2176
-3.8512
-4.18912
-3.51509
-2.92777
-2.40631
-2.23319
-2.13309
-2.23041
-2.33836
-2.53927
-2.65248
-2.73121
-2.67072
-2.37261
-2.21216
-1.99466
-1.80153
-1.83637
-2.08498
-2.50888
-3.10355
-2.92238
-2.39893
-2.02454
-1.77889
-1.62415
-1.49537
-1.62784
-1.63078
-1.78314
-1.89025
-1.90783
-1.91814
-1.77019
-1.57915
-1.49769
-1.32692
-1.39689
-1.44842
-1.72305
-2.17522
-1.72053
-1.41229
-1.21621
-1.04391
-0.874098
-0.97936
-0.966158
-0.979133
-1.18714
-1.07719
-1.19352
-1.11296
-1.0662
-0.917411
-0.860616
-0.72527
-0.784738
-0.941772
-1.02308
-1.25941
-0.557349
-0.447269
-0.458235
-0.398536
-0.334504
-0.35237
-0.33169
-0.375402
-0.42805
-0.416722
-0.311234
-0.31528
-0.364941
-0.388312
-0.27817
-0.170181
-0.239094
-0.342974
-0.342792
-0.370707
-10.0185
-8.50827
-7.11452
-6.16843
-5.67878
-5.41876
-5.40314
-5.63046
-5.95439
-6.12862
-6.21157
-6.07254
-5.57203
-5.02693
-4.48936
-4.25182
-4.34079
-4.81765
-5.68911
-6.80679
-8.50853
-7.24895
-6.11656
-5.26803
-4.82559
-4.6765
-4.70328
-4.85789
-5.09792
-5.32603
-5.36763
-5.2665
-4.81046
-4.38495
-4.02714
-3.77987
-3.85468
-4.26786
-4.99693
-5.93956
-6.98436
-6.04363
-5.02761
-4.39866
-3.97975
-3.98643
-3.87904
-4.07142
-4.32383
-4.54089
-4.54302
-4.40898
-4.13509
-3.8008
-3.39374
-3.17282
-3.25049
-3.58437
-4.30526
-5.09113
-5.63084
-4.98228
-4.11578
-3.59208
-3.24438
-3.11689
-3.23355
-3.28127
-3.50657
-3.61018
-3.72597
-3.63862
-3.41626
-3.10297
-2.83099
-2.68453
-2.74464
-2.90993
-3.54051
-4.21483
-4.30111
-3.79553
-3.16178
-2.75403
-2.5801
-2.37988
-2.47311
-2.57971
-2.7023
-2.84037
-2.89289
-2.83819
-2.58825
-2.43832
-2.16966
-2.05425
-2.14192
-2.42572
-2.83601
-3.24948
-3.08093
-2.65753
-2.26643
-1.97406
-1.77667
-1.71299
-1.71842
-1.82839
-1.93674
-2.0463
-2.09731
-2.03122
-1.85835
-1.75123
-1.59024
-1.54032
-1.48985
-1.69995
-2.05251
-2.39574
-1.86917
-1.65448
-1.41671
-1.19601
-1.00815
-1.0045
-0.993791
-1.14697
-1.21216
-1.24014
-1.24008
-1.14181
-1.1318
-1.00281
-1.02656
-0.897893
-0.946345
-1.01314
-1.21368
-1.41849
-0.621099
-0.54912
-0.428906
-0.461221
-0.342212
-0.337266
-0.370118
-0.333577
-0.398153
-0.36803
-0.368344
-0.367836
-0.381589
-0.34435
-0.314706
-0.216262
-0.312653
-0.329772
-0.430092
-0.443233
-10.4944
-8.95255
-7.69968
-6.67894
-6.06337
-5.79592
-5.76531
-5.99899
-6.15913
-6.37901
-6.43592
-6.30772
-5.88901
-5.38451
-4.9795
-4.72293
-4.80811
-5.15668
-6.06468
-7.26738
-8.78564
-7.64836
-6.4679
-5.75216
-5.13195
-4.96455
-5.02324
-5.22588
-5.36834
-5.43786
-5.49037
-5.4821
-5.10715
-4.64584
-4.34834
-4.17797
-4.25778
-4.61367
-5.40663
-6.28896
-7.3573
-6.36234
-5.43435
-4.69624
-4.29551
-4.19666
-4.10163
-4.38525
-4.51688
-4.63264
-4.79235
-4.59762
-4.31931
-3.98577
-3.69765
-3.53248
-3.61455
-3.94303
-4.67453
-5.23714
-5.92176
-5.18612
-4.38545
-3.78887
-3.43104
-3.32122
-3.43496
-3.50112
-3.6238
-3.7519
-3.75673
-3.72148
-3.51557
-3.29333
-3.04809
-2.88466
-2.94296
-3.23919
-3.83958
-4.33648
-4.45644
-3.93961
-3.44959
-2.9524
-2.66879
-2.60119
-2.67745
-2.71696
-2.84422
-2.9391
-2.93508
-2.93292
-2.73578
-2.63509
-2.49437
-2.33101
-2.32699
-2.55026
-2.91177
-3.30929
-3.20331
-2.85611
-2.36588
-2.05451
-1.91861
-1.87073
-1.7837
-1.92985
-2.08456
-2.06056
-2.18727
-2.09233
-2.01804
-1.79963
-1.78171
-1.6089
-1.72946
-1.82374
-2.13213
-2.42196
-1.916
-1.68329
-1.33506
-1.21165
-1.18241
-1.12677
-1.08486
-1.17155
-1.15204
-1.2171
-1.27804
-1.31316
-1.19521
-1.16481
-1.03567
-0.978282
-1.05995
-1.14515
-1.31362
-1.44533
-0.654188
-0.519848
-0.498249
-0.457572
-0.36079
-0.303465
-0.329954
-0.377075
-0.429907
-0.389397
-0.428039
-0.411334
-0.404149
-0.37515
-0.357355
-0.340122
-0.39183
-0.368916
-0.406259
-0.475882
-10.647
-9.30033
-8.05484
-7.01902
-6.39149
-6.02506
-6.06558
-6.10191
-6.3171
-6.48274
-6.49452
-6.33162
-5.89031
-5.51655
-5.06222
-4.92431
-5.02534
-5.63914
-6.46212
-7.4626
-9.03031
-7.86737
-6.8393
-5.9744
-5.3784
-5.21964
-5.20679
-5.26537
-5.43221
-5.54376
-5.56115
-5.48291
-5.32169
-4.80833
-4.50315
-4.39509
-4.45954
-4.86542
-5.65814
-6.49044
-7.52632
-6.64233
-5.65417
-5.01436
-4.53291
-4.32847
-4.29963
-4.39772
-4.5952
-4.70488
-4.73312
-4.67395
-4.325
-4.03649
-3.85687
-3.75893
-3.91857
-4.22823
-4.82515
-5.54912
-6.05948
-5.30169
-4.49557
-4.0089
-3.66308
-3.56128
-3.44446
-3.54365
-3.74051
-3.78621
-3.9565
-3.8289
-3.57727
-3.32464
-3.19681
-3.03127
-3.11087
-3.4425
-4.04881
-4.60188
-4.67065
-4.11096
-3.55069
-3.12853
-2.86816
-2.67719
-2.64874
-2.81101
-2.87289
-2.97839
-2.94434
-2.90495
-2.78382
-2.68184
-2.41742
-2.35515
-2.46679
-2.63196
-3.06576
-3.55735
-3.28439
-2.95488
-2.4941
-2.20625
-1.95564
-1.85453
-1.92201
-1.98485
-2.08027
-2.14031
-2.16543
-2.07973
-2.03094
-1.88355
-1.77256
-1.66225
-1.77961
-1.96294
-2.27707
-2.57515
-1.98343
-1.68096
-1.46352
-1.32199
-1.14281
-1.09055
-1.1092
-1.22034
-1.27254
-1.34784
-1.29213
-1.27714
-1.22174
-1.17842
-1.09345
-1.03321
-1.06223
-1.12073
-1.30308
-1.53417
-0.631124
-0.609781
-0.496521
-0.36144
-0.380476
-0.408288
-0.441742
-0.384541
-0.466055
-0.449905
-0.437886
-0.428032
-0.421281
-0.383164
-0.433092
-0.329533
-0.343272
-0.393853
-0.466357
-0.491752
-10.889
-9.51573
-8.21391
-7.25018
-6.54604
-6.13001
-5.97822
-6.06362
-6.19543
-6.28711
-6.32886
-6.08064
-5.90859
-5.46294
-5.2301
-5.1036
-5.10043
-5.74794
-6.60454
-7.5622
-9.21269
-8.10609
-6.92468
-6.162
-5.6755
-5.31843
-5.13954
-5.2231
-5.33292
-5.43266
-5.4609
-5.37434
-5.13924
-4.79859
-4.48097
-4.35959
-4.60007
-4.95825
-5.77316
-6.5828
-7.70669
-6.75763
-5.82038
-5.16769
-4.62898
-4.42962
-4.34018
-4.29738
-4.48889
-4.49256
-4.65599
-4.4704
-4.27441
-4.07114
-3.83459
-3.76402
-3.91502
-4.26482
-4.92194
-5.60953
-6.20521
-5.42371
-4.60478
-4.13876
-3.69918
-3.54141
-3.53743
-3.54394
-3.64995
-3.76828
-3.7905
-3.62503
-3.53852
-3.31045
-3.18706
-3.10841
-3.16429
-3.51552
-4.10503
-4.57393
-4.66555
-4.16877
-3.66604
-3.13723
-2.9101
-2.69588
-2.6464
-2.69047
-2.79409
-2.88614
-2.81581
-2.78974
-2.75209
-2.62119
-2.40847
-2.41985
-2.56586
-2.75645
-3.14288
-3.59999
-3.37644
-2.95977
-2.54477
-2.26715
-2.05895
-1.95956
-1.98629
-1.90903
-2.02138
-2.0356
-2.06479
-2.00883
-1.96359
-1.82167
-1.71984
-1.72193
-1.79978
-1.96203
-2.28336
-2.64529
-2.0044
-1.8001
-1.58022
-1.38759
-1.21912
-1.10523
-1.1273
-1.18453
-1.19778
-1.23314
-1.25673
-1.26301
-1.13904
-1.16839
-1.02758
-1.0893
-1.08948
-1.22304
-1.35054
-1.59489
-0.626739
-0.560366
-0.509384
-0.478349
-0.368776
-0.402012
-0.374625
-0.421252
-0.392797
-0.418827
-0.430306
-0.3726
-0.425298
-0.328005
-0.333546
-0.424582
-0.328032
-0.454912
-0.473288
-0.555613
-10.8051
-9.53201
-8.18336
-7.30969
-6.6141
-6.1326
-5.92316
-5.88623
-5.93952
-6.01643
-5.97483
-5.83218
-5.44758
-5.32348
-4.97012
-4.96874
-5.21203
-5.73849
-6.51971
-7.49841
-9.12496
-8.15567
-7.09367
-6.17616
-5.57276
-5.22953
-5.04004
-4.93206
-5.07361
-5.10188
-5.15819
-5.02406
-4.73897
-4.59083
-4.3747
-4.4027
-4.47767
-4.99766
-5.71879
-6.52843
-7.61306
-6.70503
-5.82275
-5.16513
-4.59581
-4.37363
-4.26038
-4.27359
-4.26594
-4.34065
-4.27712
-4.177
-4.04759
-3.82385
-3.71555
-3.74149
-3.89057
-4.30154
-4.88514
-5.53585
-6.16685
-5.42287
-4.78237
-4.13367
-3.74071
-3.52375
-3.44754
-3.38255
-3.52356
-3.51816
-3.64964
-3.44259
-3.3672
-3.11069
-3.04041
-2.98575
-3.17382
-3.52957
-4.03847
-4.57896
-4.79033
-4.21594
-3.65689
-3.15011
-2.86942
-2.68247
-2.60271
-2.64333
-2.69518
-2.75304
-2.71515
-2.71758
-2.58175
-2.43343
-2.30045
-2.34975
-2.46383
-2.7584
-3.17033
-3.57401
-3.34387
-2.98883
-2.59388
-2.23249
-2.04086
-1.89408
-1.76812
-1.83747
-1.87457
-1.93238
-1.92968
-1.86683
-1.81884
-1.79821
-1.72898
-1.71523
-1.80652
-1.97899
-2.151
-2.5604
-1.97914
-1.72536
-1.62066
-1.34877
-1.21766
-1.15749
-1.15822
-1.13137
-1.21817
-1.18067
-1.18851
-1.24916
-1.11646
-1.09081
-1.01953
-1.09114
-1.08439
-1.14589
-1.34922
-1.49281
-0.632958
-0.582819
-0.467408
-0.420468
-0.421316
-0.397433
-0.38273
-0.431988
-0.365724
-0.431638
-0.356021
-0.388782
-0.393608
-0.381293
-0.305116
-0.371709
-0.430497
-0.359187
-0.391941
-0.490987
-10.6531
-9.38459
-8.19618
-7.10125
-6.36448
-5.87002
-5.57924
-5.46988
-5.53109
-5.51395
-5.52899
-5.35392
-5.11142
-4.75365
-4.74842
-4.71314
-4.95489
-5.58905
-6.42044
-7.32136
-9.04316
-7.92967
-6.92898
-6.01635
-5.44483
-5.02514
-4.82804
-4.62847
-4.69487
-4.73757
-4.70047
-4.52622
-4.41131
-4.14484
-4.02229
-4.11434
-4.28266
-4.77843
-5.5047
-6.36016
-7.51597
-6.60095
-5.71314
-5.04719
-4.50884
-4.22081
-3.90253
-3.89661
-3.96166
-3.96959
-3.86968
-3.86332
-3.70865
-3.51988
-3.49896
-3.47451
-3.64877
-4.08635
-4.68401
-5.36622
-6.02265
-5.3259
-4.65497
-4.07963
-3.64415
-3.31569
-3.17476
-3.26414
-3.191
-3.21697
-3.20684
-3.12977
-3.08922
-2.88724
-2.87507
-2.83616
-2.98752
-3.3367
-3.88278
-4.37976
-4.62517
-4.11419
-3.55654
-3.05718
-2.74741
-2.64315
-2.44271
-2.46692
-2.45854
-2.55213
-2.43499
-2.43593
-2.38154
-2.28171
-2.23801
-2.19853
-2.33449
-2.60146
-3.02776
-3.36651
-3.27899
-2.89219
-2.49338
-2.23046
-1.96793
-1.79566
-1.8184
-1.70047
-1.77514
-1.73623
-1.70414
-1.72303
-1.72099
-1.59896
-1.55739
-1.58364
-1.69011
-1.82945
-2.17212
-2.41269
-1.92931
-1.70908
-1.42436
-1.2823
-1.15965
-1.12615
-1.07793
-1.00145
-1.03331
-1.08927
-1.01823
-0.971028
-1.00983
-1.00502
-0.939344
-0.93526
-0.944142
-1.15996
-1.35041
-1.46385
-0.632273
-0.59214
-0.492388
-0.419819
-0.429003
-0.354601
-0.329523
-0.390905
-0.346453
-0.371396
-0.337035
-0.339855
-0.373381
-0.305233
-0.26644
-0.329751
-0.346232
-0.484031
-0.409346
-0.383945
-10.3465
-9.0948
-7.90066
-6.87906
-6.04458
-5.45517
-5.1644
-4.99219
-4.88542
-4.739
-4.81466
-4.57654
-4.45075
-4.34519
-4.19569
-4.24554
-4.57408
-5.15156
-5.95769
-6.86034
-8.75566
-7.61995
-6.63672
-5.8562
-5.16741
-4.69078
-4.31235
-4.25523
-4.15228
-4.12102
-4.13541
-3.96251
-3.86715
-3.69097
-3.67084
-3.70726
-3.96956
-4.43769
-5.28547
-5.99211
-7.22723
-6.38105
-5.54198
-4.78001
-4.27382
-3.85346
-3.66196
-3.53223
-3.4843
-3.43414
-3.41139
-3.37833
-3.23493
-3.08043
-3.09102
-3.1264
-3.36636
-3.84243
-4.49659
-5.16645
-5.85382
-5.19147
-4.45406
-3.81185
-3.45765
-3.10727
-2.992
-2.82249
-2.85794
-2.8246
-2.68918
-2.79923
-2.68099
-2.57252
-2.55318
-2.62744
-2.78367
-3.12287
-3.64044
-4.12436
-4.47545
-3.96806
-3.41719
-2.9244
-2.61922
-2.32632
-2.25183
-2.26789
-2.09176
-2.16938
-2.11074
-2.12868
-2.00139
-2.02737
-1.90319
-1.98702
-2.21783
-2.48493
-2.85242
-3.20498
-3.20716
-2.83411
-2.32883
-2.13897
-1.86691
-1.67557
-1.60489
-1.54691
-1.55263
-1.57005
-1.49169
-1.55653
-1.44279
-1.41792
-1.34205
-1.46242
-1.49046
-1.72435
-2.07014
-2.30852
-1.81333
-1.63625
-1.42462
-1.26701
-1.03605
-1.03649
-0.906644
-0.925021
-0.974935
-0.864055
-0.861037
-0.836372
-0.848172
-0.858508
-0.829303
-0.887749
-0.901973
-1.01637
-1.21434
-1.35807
-0.6685
-0.599252
-0.555132
-0.455808
-0.385136
-0.325938
-0.251652
-0.360564
-0.298778
-0.321447
-0.275785
-0.251193
-0.316548
-0.316132
-0.18791
-0.335369
-0.300269
-0.298052
-0.478434
-0.52345
-9.82101
-8.61794
-7.38039
-6.40231
-5.56264
-4.96998
-4.52623
-4.28085
-4.16543
-4.02434
-4.03395
-3.86395
-3.70581
-3.56148
-3.52682
-3.63992
-4.07373
-4.6186
-5.39493
-6.35838
-8.29216
-7.34885
-6.26648
-5.3382
-4.71585
-4.21036
-3.91266
-3.61427
-3.59866
-3.4377
-3.39868
-3.21144
-3.22373
-3.20299
-3.06656
-3.22364
-3.50782
-4.04739
-4.82978
-5.53904
-6.93515
-5.93783
-5.18135
-4.41113
-3.83878
-3.45726
-3.15622
-3.03804
-2.907
-2.87704
-2.78049
-2.77726
-2.78599
-2.58847
-2.59127
-2.72906
-2.94366
-3.47063
-4.04321
-4.65994
-5.48113
-4.81968
-4.18672
-3.54462
-2.98661
-2.75059
-2.55523
-2.41093
-2.36035
-2.35757
-2.34915
-2.25013
-2.13867
-2.06923
-2.07638
-2.24154
-2.39223
-2.8249
-3.393
-3.86302
-4.22356
-3.6903
-3.19128
-2.7296
-2.38005
-2.15246
-2.0046
-1.83632
-1.81267
-1.80182
-1.78525
-1.84638
-1.62104
-1.71455
-1.66478
-1.71584
-1.89689
-2.21487
-2.56521
-3.01914
-2.95286
-2.67302
-2.35178
-1.93465
-1.67177
-1.50577
-1.28626
-1.28545
-1.29025
-1.20248
-1.23344
-1.23139
-1.21847
-1.13269
-1.24285
-1.20678
-1.40948
-1.63737
-1.78557
-2.11754
-1.82484
-1.65068
-1.374
-1.21222
-0.984225
-0.91556
-0.798829
-0.803491
-0.73905
-0.837183
-0.836158
-0.775818
-0.638156
-0.698042
-0.781774
-0.724601
-0.865476
-0.942077
-1.13145
-1.304
-0.62145
-0.477991
-0.448585
-0.359331
-0.326194
-0.241655
-0.292299
-0.312786
-0.276798
-0.261908
-0.316071
-0.273503
-0.252642
-0.206589
-0.249084
-0.31174
-0.299999
-0.31247
-0.334025
-0.44427
-9.22156
-8.03202
-6.83202
-5.74592
-4.79959
-4.25514
-3.82909
-3.4591
-3.35248
-3.1491
-3.05713
-2.98914
-2.85344
-2.69003
-2.73287
-2.9252
-3.32215
-4.05071
-4.83092
-5.71177
-7.73421
-6.78544
-5.79166
-4.78319
-4.05677
-3.58768
-3.18058
-2.97129
-2.71315
-2.64003
-2.6116
-2.46418
-2.37865
-2.38651
-2.44995
-2.56129
-2.96003
-3.52257
-4.22981
-4.92506
-6.39541
-5.67712
-4.70422
-3.97297
-3.36153
-2.97278
-2.60217
-2.48064
-2.33533
-2.27903
-2.13953
-2.16253
-2.07041
-2.06327
-1.96307
-2.26072
-2.41221
-2.85927
-3.62411
-4.23777
-5.17509
-4.4883
-3.80832
-3.23994
-2.67751
-2.31922
-2.13317
-1.91347
-1.80914
-1.83961
-1.81805
-1.74864
-1.61141
-1.64066
-1.62871
-1.71518
-2.06159
-2.37531
-2.91099
-3.45111
-3.92851
-3.46392
-2.8705
-2.46276
-2.02069
-1.7938
-1.67153
-1.47064
-1.42539
-1.38012
-1.32189
-1.35396
-1.3318
-1.26981
-1.28069
-1.37738
-1.58748
-1.89544
-2.24505
-2.68357
-2.819
-2.43975
-2.05603
-1.71055
-1.40681
-1.22102
-1.12068
-1.03133
-0.986366
-1.03215
-0.921862
-0.99439
-0.909784
-0.808286
-0.945101
-0.991977
-1.18786
-1.37906
-1.61931
-1.88505
-1.68605
-1.48545
-1.17521
-1.04489
-0.825139
-0.745892
-0.618971
-0.691416
-0.605617
-0.540871
-0.562566
-0.545741
-0.476968
-0.595891
-0.49974
-0.587038
-0.708542
-0.803214
-0.950831
-1.12647
-0.51114
-0.502122
-0.455726
-0.33347
-0.163699
-0.248586
-0.254242
-0.273996
-0.240224
-0.117822
-0.250567
-0.127463
-0.162104
-0.16124
-0.289468
-0.184949
-0.22284
-0.243642
-0.259724
-0.387727
-8.53253
-7.34434
-6.13959
-5.11515
-4.19956
-3.49568
-3.03209
-2.71395
-2.41792
-2.1863
-2.12575
-2.05527
-1.94827
-1.87417
-1.9331
-2.25967
-2.64929
-3.23715
-4.09995
-5.04472
-7.19642
-6.16274
-5.14777
-4.23795
-3.38753
-2.88838
-2.59283
-2.24698
-2.00289
-1.93886
-1.84673
-1.63202
-1.59924
-1.60019
-1.76545
-1.85705
-2.2461
-2.9022
-3.57511
-4.38681
-5.9049
-5.11273
-4.31539
-3.47989
-2.86754
-2.41411
-2.15491
-1.8949
-1.6301
-1.53871
-1.49119
-1.43586
-1.38201
-1.48716
-1.34825
-1.6162
-1.90881
-2.42989
-2.99341
-3.74809
-4.68002
-4.13466
-3.38354
-2.75733
-2.33733
-1.91365
-1.63329
-1.48462
-1.35207
-1.31032
-1.21679
-1.21349
-1.1851
-1.07399
-1.19434
-1.30339
-1.59451
-2.06326
-2.59306
-2.98766
-3.61222
-3.13907
-2.62057
-2.12184
-1.7144
-1.49786
-1.30212
-1.18476
-1.06611
-1.00415
-0.97884
-0.886816
-0.808059
-0.90681
-0.967387
-1.08229
-1.33199
-1.55855
-1.96984
-2.34883
-2.57255
-2.18668
-1.849
-1.49916
-1.23037
-1.06432
-0.899356
-0.779321
-0.772876
-0.718285
-0.624867
-0.713145
-0.745073
-0.674916
-0.684599
-0.79825
-0.896083
-1.14937
-1.43392
-1.6729
-1.57185
-1.33134
-1.15443
-0.850246
-0.755627
-0.508462
-0.534442
-0.430936
-0.473668
-0.316288
-0.429112
-0.379042
-0.308716
-0.361158
-0.43788
-0.50812
-0.585323
-0.663792
-0.894364
-0.930645
-0.509379
-0.415227
-0.314941
-0.29439
-0.175586
-0.168032
-0.238231
-0.116399
-0.164597
-0.0882525
-0.10498
-0.162233
-0.0978773
-0.1053
-0.148096
-0.108029
-0.172361
-0.221097
-0.213479
-0.288895
-7.84457
-6.70691
-5.4636
-4.44699
-3.624
-2.88026
-2.30307
-1.96126
-1.74738
-1.45466
-1.38391
-1.27748
-1.13496
-1.19331
-1.3017
-1.55225
-1.94146
-2.6208
-3.46759
-4.3803
-6.61024
-5.64093
-4.64467
-3.74897
-3.01132
-2.44189
-1.94376
-1.65976
-1.45803
-1.30102
-1.21303
-1.09865
-1.01634
-1.0519
-1.21148
-1.34259
-1.8071
-2.36246
-3.14324
-3.81669
-5.53675
-4.74456
-3.81351
-3.12036
-2.42264
-1.97666
-1.55255
-1.3727
-1.19417
-1.09285
-1.0058
-0.9396
-0.942243
-0.890391
-0.986224
-1.20687
-1.46986
-2.03748
-2.70049
-3.21729
-4.43684
-3.80078
-3.14416
-2.42
-1.97845
-1.67692
-1.31164
-1.13112
-0.982438
-0.865362
-0.894596
-0.74059
-0.719637
-0.858941
-0.834603
-1.01037
-1.24045
-1.69296
-2.25126
-2.80027
-3.36906
-2.92897
-2.35312
-1.96145
-1.50094
-1.18071
-1.01346
-0.925395
-0.837182
-0.646664
-0.665548
-0.615413
-0.565881
-0.661695
-0.67488
-0.810226
-1.00996
-1.31077
-1.67553
-2.14369
-2.43316
-2.05607
-1.6856
-1.30182
-1.00161
-0.780735
-0.678416
-0.538448
-0.539987
-0.48396
-0.470409
-0.382804
-0.40999
-0.385129
-0.4658