/*--------------------------------*- C++ -*----------------------------------*\
| =========                 |                                                 |
| \\      /  F ield         | OpenFOAM: The Open Source CFD Toolbox           |
|  \\    /   O peration     | Version:  2212                                  |
|   \\  /    A nd           | Website:  www.openfoam.com                      |
|    \\/     M anipulation  |                                                 |
\*---------------------------------------------------------------------------*/
FoamFile
{
    version     2.0;
    format      ascii;
    arch        "LSB;label=32;scalar=64";
    class       volScalarField;
    location    "./ITHACAoutput/true/4.2";
    object      error;
}
// * * * * * * * * * * * * * * * * * * * * * * * * * * * * * * * * * * * * * //

dimensions      [0 0 0 1 0 0 0];

internalField   nonuniform List<scalar> 
3200
(
-6.1376
-3.38635
0.50665
0.618655
5.82429
4.13843
4.02944
3.88042
1.86337
4.0677
4.07757
4.12295
3.20707
3.03797
4.52069
1.34563
1.62382
3.0276
-1.7351
-1.86501
-3.49505
-2.95272
2.91501
3.17186
2.06517
3.57386
3.87313
2.65437
3.5037
3.94666
3.64869
-0.0915848
3.03461
4.72796
4.92886
3.67487
3.51438
1.7371
-0.791622
-3.58273
-2.7713
-0.0378942
-1.32008
1.12071
2.79523
4.71553
1.88102
2.31982
3.85389
4.41331
5.46485
1.89912
-0.111408
4.07367
4.4377
6.07713
1.67556
0.891154
-1.56909
-0.459396
-2.23985
-0.731792
0.631902
1.67301
1.08046
3.91232
2.99942
0.683671
2.90967
2.68332
1.70359
3.82337
2.79408
2.00925
1.87907
1.34125
1.75322
3.00059
-2.49551
-1.04549
-3.24871
0.659536
-0.510816
-1.83725
1.96684
-1.00384
3.14323
0.423137
-0.69985
0.198846
2.89534
1.81002
-0.455934
2.3903
-0.362741
0.167368
0.756325
1.73513
1.28385
-0.696647
-1.12445
-2.49688
1.25866
-0.0870432
2.5141
2.15254
-0.0579706
1.91661
1.1394
0.986887
2.12843
3.4889
2.40441
-0.271297
1.77985
-0.290002
1.67375
0.364667
0.904846
0.576709
0.861019
-0.017469
-0.0262769
0.869838
0.727989
0.193361
0.429907
-0.12736
-0.316723
0.964914
3.41349
-2.64593
0.693634
-0.897323
0.708676
2.32967
0.189615
-1.04518
-0.299405
-1.70242
0.0039406
-1.75977
0.915726
-1.61369
2.11988
-0.0709211
-1.14613
1.87516
-0.604331
0.590962
-0.162288
1.88905
0.616834
-1.12299
-3.27918
0.506512
0.651427
3.73038
-1.33649
1.64533
-3.95401
-1.51882
0.666248
0.905048
2.31326
3.16176
3.62393
3.14948
3.00397
3.01917
3.62471
5.81389
4.52364
4.78371
3.63714
1.77876
3.15136
1.95374
-0.287226
-2.87161
-0.00630651
-1.11231
-0.559997
-0.111683
1.56213
0.477264
3.69578
0.012853
4.11945
-0.0492798
0.103102
1.59393
0.40971
0.779733
-0.299507
1.77455
0.41939
0.85377
0.187951
-1.54667
-2.36377
-0.665242
-2.4891
-2.0975
1.69568
2.22411
2.77281
1.7295
3.95329
3.46905
0.556804
0.857327
1.73846
1.26273
2.26873
3.65447
-1.06586
-0.229883
-0.144451
0.0882137
-0.185429
1.73747
-0.0607887
0.947919
2.90854
0.0255529
2.33483
0.176352
-0.0287739
-0.0518484
2.11008
3.01068
3.02383
-0.969672
0.606764
2.51122
-2.00121
1.70217
1.40116
1.10088
-3.20693
-2.47012
0.0930129
1.04204
0.308634
0.286314
1.11642
1.23953
3.6896
0.552129
3.28142
1.2984
-1.85095
0.846086
-1.40824
2.57299
0.38307
1.08652
0.25009
-1.19104
-2.40686
1.63913
0.67363
-1.14476
4.1054
1.72509
3.11239
0.772134
-1.07743
-1.72202
-1.27929
-1.75693
1.24179
0.706808
0.485019
-1.58752
1.68326
-0.979392
-1.57772
-2.38331
-3.18802
0.133174
1.29156
0.213243
-1.2296
1.20578
-0.879464
-0.431117
1.68081
1.74496
1.66788
2.70784
-1.24351
1.20179
-1.16526
1.23785
2.72591
-2.45662
-2.73307
-1.36014
-0.132942
1.04227
2.84224
2.29067
-0.0450217
-0.933853
2.72314
1.65299
1.35038
-0.222863
3.32295
1.92363
2.43371
0.698418
3.19084
3.8062
-1.1416
-0.578479
1.94687
0.506099
-5.05127
-3.62868
-0.136998
2.08321
2.7059
1.38888
4.25569
3.95126
3.61845
1.5855
2.30096
0.66414
1.98134
5.7668
1.53424
5.27242
2.65234
-1.11191
0.370404
0.271124
-1.46248
-0.961763
-0.236406
0.38652
1.6388
3.08388
3.26061
4.07343
2.75647
1.48512
5.79911
0.795579
5.14038
3.52755
2.84698
3.285
-0.392637
0.125491
0.52571
-1.56398
-3.85061
-1.46345
0.0590302
0.659422
-0.859115
-0.77786
2.6646
3.20441
2.98888
2.45969
1.87412
0.741997
4.06928
2.95281
1.75718
1.70925
-0.959914
1.36013
-1.01042
-2.26846
-1.30439
-2.70188
-1.3291
1.03316
-0.380082
-0.475569
1.17226
2.52126
0.341054
1.30393
0.545172
0.121349
0.972944
0.771909
1.4253
-0.0531793
3.22312
0.0382669
-2.66674
-2.91753
-2.92323
-0.543769
2.06124
1.60238
1.48
1.34269
-0.106836
0.800561
-1.02842
1.28547
2.23218
2.06431
0.866764
0.898786
2.3965
0.942269
1.71256
-1.33544
0.175787
-3.20441
-1.34611
-1.55549
1.35603
-2.64853
-0.556309
0.590985
-0.0069817
-2.16325
-0.223106
1.87975
0.230975
0.227601
1.86864
1.1659
0.453772
-1.0104
-0.0827241
-0.314727
-0.566446
-1.00765
-1.84444
0.727455
-0.676308
-1.19859
0.496842
-0.823796
-0.942629
1.28831
-0.0591375
0.307946
-2.11989
-0.466175
-1.01405
-1.35994
-2.05004
-1.66585
-0.3879
-2.5453
-0.382678
-2.5065
0.29046
1.16457
0.83179
-0.65684
1.07726
0.422911
-0.0644361
1.25907
2.58084
-0.114948
1.47895
0.182952
0.958723
-2.71403
1.19097
4.18963
-2.29376
-2.16232
-0.314953
0.211419
-2.09897
-3.08888
0.779722
2.01938
0.963937
2.12609
2.10443
4.336
-0.828423
3.04881
0.885735
2.72163
2.10192
1.04376
0.691005
3.61131
-1.2755
-1.37344
-4.31047
-2.19904
-2.39573
0.339451
-0.149384
-0.482891
2.6383
0.0297423
0.684988
0.238732
1.97443
-0.581562
0.448563
1.48891
0.373505
2.0947
0.0886934
-0.597597
0.480786
-0.686317
-0.437916
-0.770234
-2.36074
-2.38307
-0.361281
0.487982
1.92964
-1.35959
0.778797
3.08134
0.719351
2.41737
0.201878
1.14921
0.753711
1.09219
0.608131
-0.615318
0.618425
-0.133027
-3.6326
-3.70443
-4.01461
-2.19669
-0.159105
0.728905
1.56274
0.635883
1.69662
0.332936
0.552319
0.0959804
-0.613378
1.58457
3.53847
-1.68914
0.148136
1.61914
1.13105
2.00372
-0.448874
-0.651039
-4.55502
-4.78635
-0.129475
0.86532
3.56638
0.637659
1.96127
0.505547
2.35808
-0.410388
-0.412348
2.79894
-0.37842
0.794274
0.0751252
2.7411
0.764161
0.0616072
1.86622
-2.37099
-2.35413
-2.44271
1.9753
-0.783104
3.02969
1.55646
1.68728
0.70621
1.01795
-2.58623
-0.0922537
0.231425
0.441404
0.37596
0.195214
1.26711
-1.81783
0.0726039
-2.01566
1.08301
-1.08447
-1.094
-1.31707
-1.92245
0.364994
0.243141
-0.0976042
0.512552
1.26883
0.43695
-0.975655
-0.758126
-2.45567
2.692
1.23864
-1.47102
-0.122881
0.239509
0.441027
-0.746008
0.428234
2.29783
-0.221005
-0.604573
-0.43769
-2.03029
1.95143
2.82178
-0.564703
0.300808
2.1895
0.334667
1.27796
1.21506
-0.280628
-0.748987
0.0838883
-2.70088
-0.572113
2.97012
-5.69239
-4.28497
0.194735
-0.498729
2.54215
1.78786
2.22766
-0.176527
1.27252
0.695141
-0.270336
1.23188
-0.0552123
0.155903
1.3359
-0.0338227
-0.0668129
1.47215
-0.544767
-4.473
-2.40488
-0.224962
-0.291518
-1.53531
0.958929
3.48345
2.11344
2.9025
0.447997
2.79464
-0.719401
-0.522986
1.43442
0.959618
-1.57671
2.62555
0.184261
0.0325163
-1.28693
-3.60143
-2.77011
-1.03687
0.88453
1.65198
1.65027
2.4226
-0.0252566
3.90543
1.7391
-1.13671
0.180616
-2.14927
2.18133
2.79454
0.460213
2.80854
1.11157
-1.18085
0.669594
0.413706
-3.77359
-0.624866
0.874185
0.284871
-0.516701
1.59652
0.134912
-1.4325
-0.946689
0.573144
0.372283
-0.35195
0.0927888
2.37829
1.28569
0.447149
1.44621
0.531679
-1.28719
-2.72778
0.167074
0.774577
2.43971
1.88329
-1.11687
3.09689
-0.524047
1.76141
0.257834
3.26009
1.90621
1.61097
2.08244
-1.08102
-0.254946
0.427736
2.29982
-0.782271
0.322495
-0.170448
-1.31364
-1.00143
-0.962274
0.0398217
-1.54751
-0.0223275
2.44696
-0.857212
2.33235
-1.79192
-0.692898
1.52487
2.61058
-1.11466
1.30192
0.635275
-0.800404
-0.34291
-1.39774
-0.765368
-0.302508
-0.776389
1.24477
0.540163
0.0235946
2.89407
0.412587
2.04106
-0.963155
-0.350487
1.69259
0.992742
-1.5346
-0.671612
0.65305
1.77546
-0.404183
0.302221
-1.6701
-0.324384
2.78398
-0.0483193
-2.29926
0.965991
-2.63241
1.61518
-3.06793
-1.6493
-1.39794
0.469693
1.44542
1.95523
-0.406954
-3.6879
-0.0528531
2.17313
0.0848061
1.16571
0.0897563
0.0259581
-1.87044
-3.08597
-1.30901
0.869642
-0.932587
1.85441
2.44837
1.11396
1.07008
0.329469
-0.020938
1.52307
2.43223
-1.58419
-1.60951
2.98631
0.1579
-1.71079
-2.32018
-3.00173
-3.53478
-0.752961
-1.36918
-0.471356
1.49145
0.780595
1.24262
0.0298899
2.00185
-0.33905
0.393291
1.37456
-0.025018
0.810005
-0.0812925
2.42875
0.40077
-0.211461
-0.54231
-4.86749
-3.04948
-4.42897
-0.800701
-0.616087
-0.237764
2.01066
1.88476
-1.07423
0.964565
-0.355116
-0.953793
-0.775273
1.75301
2.70878
-0.0740159
-0.67469
-0.709083
-3.03868
-2.62664
-3.19879
-0.237219
0.505659
-0.416493
-0.342233
0.883151
0.879634
0.605271
0.407862
0.624771
0.821424
-1.21986
1.7369
-3.73237
1.45888
-0.833311
3.49578
1.1885
0.939023
-2.13096
-0.604376
-1.1173
0.127595
-1.52445
0.790975
0.839767
1.61825
0.828366
0.634031
2.74537
-1.92912
-0.80175
0.595166
0.283409
-2.05231
-2.00125
-0.943174
-1.01048
-3.89157
0.536108
-1.21173
-1.46235
-0.427858
1.14785
2.46856
0.0975021
0.127902
-0.540646
-0.904665
-2.0873
1.94825
2.56294
-0.201291
0.437766
0.00279485
0.778669
-1.39725
-0.90847
-0.2894
-0.398199
-2.06954
-0.607903
1.01328
-1.32217
1.97789
2.0311
-1.52938
3.2375
0.096416
-1.08705
-1.62301
2.47409
1.17245
-0.0942685
1.77793
-0.37488
-0.0972739
-1.75652
1.65424
-0.0550726
0.191021
0.464399
-4.32152
0.360607
0.287195
-0.412056
-0.561861
0.595376
2.00234
-0.0913175
-0.705373
-1.28806
-0.179527
0.369506
1.01335
1.01459
0.100517
0.728983
-0.932461
2.45376
-2.01444
-7.70637
-3.97027
-1.24384
-2.72928
0.359371
1.95799
-1.01935
0.801456
-0.165437
-1.37037
-1.60845
0.605805
-2.60943
-0.601463
0.104131
0.921632
0.192809
-0.557993
0.138483
-2.88854
-4.25461
-1.92813
-0.278632
-1.74941
1.74622
0.757309
-2.47106
-1.168
0.7932
-0.663454
-1.58422
-1.94822
-0.58636
-0.103939
1.00312
-1.74299
-0.702118
-2.30147
-0.814112
-4.53163
-4.1706
-1.21018
-1.18185
-1.97644
-0.162417
1.27685
2.34031
1.56797
-2.62863
-1.5822
-1.13274
-1.72546
-0.879852
1.03464
-0.0473671
-0.429385
0.655952
-4.09606
0.415994
-3.62193
-1.63023
-3.65398
-2.43484
-1.31774
0.655952
0.120471
-0.811623
1.16915
-1.10545
0.45243
2.47786
0.188484
-0.0853352
-1.32351
-1.1553
0.609718
-0.550876
0.995555
-3.10384
-3.36702
-4.12768
-2.00092
-2.9903
-0.484443
0.555592
1.85306
1.76491
-1.68654
-1.21968
-1.8255
-0.371132
-3.08012
1.18667
-1.23765
1.41014
-0.347045
0.309573
-1.50955
1.50404
-2.24043
-0.695913
1.35508
-2.52922
1.41116
1.12205
-0.104436
-0.242549
0.450568
0.109034
2.04717
-3.13652
-1.81888
1.02882
-2.18534
0.00532378
-1.12312
1.20397
-0.838774
3.14762
-1.24481
-0.57455
0.993543
1.08218
-1.74376
-0.141604
0.197519
-0.859444
0.484668
3.74626
0.388822
-1.40963
1.88787
2.03462
1.02578
1.26026
1.74015
0.0411991
1.46111
0.438503
-0.545481
0.0475271
-1.28149
0.205817
0.639217
-0.0444668
-0.755621
1.77578
0.213347
0.166312
-2.52032
1.1519
1.48334
-0.91091
0.567986
-0.53094
0.38405
0.272254
-2.10827
1.45273
-0.826256
-4.85384
-3.03732
-2.22496
-1.42893
1.17819
-0.726186
-0.660909
-3.48265
2.96784
-2.7128
-2.90778
-2.45518
-1.61743
-3.33142
1.67747
-1.5122
1.09812
-4.59863
-3.38604
-4.21503
-3.36875
-0.047532
-2.243
0.293935
-1.37129
0.620511
-0.245916
-0.422026
-0.881469
0.063144
-0.0314347
-1.63407
0.305506
-0.688878
-0.387329
-0.476166
-0.149363
-2.80777
-1.07478
-5.26332
-3.53827
-0.7409
3.74051
1.81066
-0.66734
2.24316
0.171916
0.18381
-1.64708
-0.799157
-0.475686
-1.06599
-2.45112
-0.597187
-1.63849
1.09597
-2.30602
0.187984
-2.94314
-4.60279
-4.07154
-1.30148
-2.69493
1.5257
-1.46441
-1.32318
0.452598
1.045
1.30652
-0.525832
-2.59162
-1.36175
-1.26964
2.25044
-1.56145
-0.583245
2.26562
-2.53764
-2.0816
-0.742868
-0.425339
0.560477
-2.87211
0.654486
-1.10418
-1.71889
0.182531
1.40241
-2.92586
0.0916474
0.0458702
-2.43917
-2.18171
0.0439784
-0.958106
0.20741
-2.685
0.323648
-0.273655
-3.5091
-3.60598
-1.54127
-1.02611
-0.563365
0.115254
-2.76107
0.568348
0.321799
-0.393191
-0.968851
-2.86189
-0.213143
-0.469266
0.160266
0.496339
-0.228171
0.112539
-3.04642
-0.204637
-2.92765
0.226329
-2.80416
-0.625301
-0.959109
-0.455097
1.77397
-4.2044
2.57898
0.0574895
-0.306629
1.15937
0.964624
-1.72213
-2.41537
-0.0848567
0.531838
0.136418
-1.44291
0.0448313
-0.831143
0.903684
-1.15732
0.517418
0.999446
1.09597
-0.265708
-2.04027
-0.668258
0.222974
0.18869
0.936921
-0.975254
-0.736082
-1.16483
0.252438
1.88633
-1.90619
-0.507048
-2.9338
-1.74109
-4.79435
-2.75545
-2.5746
-1.98173
-2.48227
1.30177
-0.0198492
-2.55594
-0.23556
0.114257
-4.7109
-7.49003
-1.71581
-0.16409
-1.93002
0.430417
-0.374585
-2.50406
-3.33424
-2.1833
-7.6466
-3.00735
-3.43247
-1.09944
-1.95048
-0.606948
-3.54067
1.34798
-0.77914
0.317488
-3.25275
-3.78156
-4.19582
-1.4717
-0.66528
-0.16123
1.30259
-1.41552
-3.58309
-3.82395
-1.3292
-3.56152
-2.24174
-1.44323
1.48682
-0.681357
-0.676859
-0.0888786
-3.31459
-1.53281
-0.72623
-3.49204
-1.68873
-1.6654
-2.8602
-2.85657
-2.27611
-2.53583
-2.33768
-3.6484
-2.97728
0.316131
-4.25642
-0.308316
-2.0514
-2.32687
0.283593
-0.0378303
-2.72387
-3.17215
-2.51562
-1.06702
-4.29965
-1.67459
-0.0919825
0.0170357
-3.48723
-1.99112
-2.70611
-1.98144
-4.34538
-1.01
-2.2249
0.992259
-1.74277
-1.05802
-0.337902
-0.788936
-1.11555
0.636616
0.882675
1.55273
-3.60726
2.89159
0.313976
-1.31036
-0.802123
-1.21396
-2.3629
-0.160587
-1.87164
-1.67571
-0.675794
1.4912
-1.44852
-0.554945
-1.04119
-0.285892
-2.83852
-3.0751
-2.0251
-2.29756
-1.2487
0.503552
0.214156
0.896109
-1.10506
-2.4339
-1.16981
-3.71888
1.20314
-0.623399
0.358644
0.0648698
1.4462
-1.26581
-1.36383
0.039101
-2.5529
-0.0648828
0.230319
-1.82767
-0.440901
-0.101164
-0.434085
1.21667
-1.33967
-2.05498
-1.79707
-0.186581
-0.669468
0.667022
-1.19069
-2.1401
-0.588188
0.0238179
-0.11598
0.0630394
0.00159533
-1.92133
-0.411739
0.723174
0.11644
-0.869627
0.286186
1.89309
-0.466241
-0.345713
1.22584
-0.374753
-4.55031
-3.39034
-1.75561
-1.1983
-2.57373
0.811493
0.713701
-4.03842
-2.47666
-2.51964
0.400051
-5.01932
-0.970822
1.39799
-0.00479773
-0.2238
-0.0578687
-1.5589
-3.6436
-1.58482
-3.78463
0.537238
-0.0856544
-0.168935
-1.76053
-0.0467816
0.232907
0.11869
-4.08995
0.0463151
-0.76649
-2.68628
0.22991
-0.0341286
0.820808
-1.58255
-0.0207752
-0.28572
0.253662
-6.2532
-2.83972
-2.18729
-2.35572
-1.91178
-0.420534
-1.89507
-1.7627
-0.905499
-3.3994
-2.48833
-3.15024
-2.07314
-1.85246
-0.343472
0.371255
0.672027
-0.510157
-0.970955
-3.01505
-2.22884
-4.41719
-2.89815
0.412405
0.371725
-1.22734
0.520762
-0.444437
0.170798
-1.97082
-3.59818
-1.30437
-4.40061
-0.84468
-1.46245
-2.70666
-0.138432
-1.16186
-2.98792
-0.697484
-3.12308
-1.19471
-3.76477
-0.182455
2.18029
0.865877
0.0330048
-2.38363
0.706514
-0.793133
-2.1693
-0.860687
-1.81847
1.76999
-2.81848
-1.3604
-0.274589
-0.950729
-2.34004
0.600845
-3.76866
-0.370312
-1.83538
0.461103
-0.474289
-2.078
-0.205611
-1.92979
0.359498
-3.87527
-3.0886
-4.31834
-0.903001
-1.01164
1.22517
2.41079
-0.108178
-0.112685
-1.81208
-3.4523
-1.21669
-3.41017
-0.987066
-1.04281
-1.32556
0.687789
-1.31171
-0.796174
0.66117
-1.22514
0.0178787
-2.61149
-1.0245
-0.80701
-0.656016
1.32607
-1.76667
-0.965027
-0.403543
0.455914
-0.395447
1.15793
-0.841374
0.241038
-2.95484
-0.642238
0.292881
-1.08107
-2.43415
0.614244
-0.919851
-2.21487
-0.924006
1.28218
-1.76599
1.03635
-0.541027
-0.375484
-1.055
-1.4175
0.414144
-5.65892
-4.50966
-2.70513
-1.84729
-1.74227
0.831675
-1.25062
0.290669
-2.891
-3.10049
-2.36421
-3.87386
-2.68013
0.307558
-2.03189
-1.34069
-1.8362
-3.78933
-3.87278
-5.3853
-6.30286
-0.722752
-1.10655
-0.231194
-0.310701
0.651701
-1.43346
0.0494976
-0.591372
0.512475
-0.631683
-3.72329
0.15038
-1.64621
0.0253062
-0.0548514
0.0399091
-5.76324
0.155026
-5.83173
-5.12568
-4.67345
-3.91128
1.86111
0.241435
0.354566
-1.93967
-2.06834
-1.70607
-0.345476
0.560545
-1.55925
-0.871675
-4.89922
-1.17469
-1.28879
-1.01458
-2.64939
-1.78735
-4.01572
-5.38842
-2.28561
-1.40272
-2.91241
2.69826
-0.841591
-2.14532
-2.0722
-0.87802
-1.00442
-3.39492
-2.39114
-2.23383
-1.73764
0.382372
-1.44743
-1.38333
-2.25028
-2.78935
-2.59996
-2.46296
0.576773
-2.0291
0.598803
-1.62968
-0.842552
-3.38012
-4.07984
2.37575
-0.0344754
-0.599461
-3.75898
-0.677739
-0.864906
-0.767299
0.269042
-0.0792259
0.16233
-2.07713
0.112446
-2.47174
-2.75979
-0.146544
-1.42706
-0.635058
-1.22496
0.957416
-0.892934
-0.480618
-1.53979
0.416958
-0.400478
0.879485
-0.732023
-1.11181
2.0067
-4.44942
-0.109702
0.653338
-3.33163
0.619532
0.260704
0.678604
2.03191
0.777924
-2.35761
-1.25045
1.49252
-3.13444
1.56898
2.93482
-1.1804
0.412748
0.185699
0.831816
2.10317
-0.0422585
0.555241
-0.331422
-2.26117
-0.446603
0.496521
0.868109
0.492492
-0.422641
-0.878025
0.42293
-0.0670279
2.21573
-0.0463614
0.604609
-0.599188
1.16016
-2.14874
-1.17243
-0.612016
-0.352107
1.27481
0.109598
-0.0959157
-3.97947
-5.32911
-1.82129
-3.40572
0.577645
0.983323
-0.00951415
-1.69394
-2.4366
-1.92997
-3.74086
-3.63227
-1.45172
-1.38179
-0.166216
2.05613
-1.48038
-0.913568
-4.63287
-3.90506
-5.11744
-4.47353
-2.78857
-1.64206
-1.48071
0.909551
-1.1872
-2.20801
0.532318
-0.623971
-1.54835
-3.63575
-1.08427
-1.14696
-2.56591
-2.03463
-1.56687
-4.5141
-5.92743
-3.27007
-1.40742
-3.81485
-0.0958771
-1.48346
0.105931
-1.77333
-2.46696
-1.14638
-1.17472
-2.74617
-1.71835
-1.1017
-1.81044
-2.1343
-2.46095
-1.59686
-0.535576
-0.947125
-2.02309
-3.97473
-2.51629
-2.58086
-0.88628
1.75153
0.244833
-1.68893
-0.243398
-1.62534
-3.68365
-1.12009
-0.624914
-0.286901
0.0983657
0.842018
-0.995366
-2.57322
-1.1738
-0.0212403
-3.21471
-1.73608
-1.92053
-1.0992
-0.0897271
0.313513
0.402065
-2.92669
-0.721811
0.256832
1.25225
0.512711
-0.956123
-1.98129
-2.43753
-0.901523
-0.428165
2.83987
-2.18288
0.424796
-3.27211
-2.6865
-1.5109
-0.965245
-0.882165
1.39518
-1.5198
0.0158205
-0.432398
-2.70487
-0.571247
-0.75756
-2.48265
-2.4433
0.136181
0.435326
-2.72814
-1.37078
-0.981149
-2.56851
-0.11952
-2.25312
0.26763
0.522634
-0.338976
0.103461
-1.67445
-0.468326
0.00755082
-0.691632
1.90339
-0.719583
-1.00489
-1.06957
-0.634575
-0.281902
1.25898
0.459478
-2.42095
-0.734744
-0.176434
0.157847
-0.481686
0.0702398
-0.496967
-1.33532
-0.583316
0.369609
-0.683092
-0.171419
-2.18679
-2.08867
-2.41051
-1.80103
-0.608308
0.854365
0.457831
1.95898
-0.709635
-0.953963
-0.735486
-2.31394
-1.8596
-1.8738
-2.26104
0.644354
1.12173
2.39455
-1.23473
2.24527
-0.872347
-0.852257
-2.92814
-2.27121
-3.93136
-0.776523
-0.0382906
0.0276195
-1.22371
-3.21812
-3.21764
-5.538
-3.52599
-0.298001
-1.23711
-0.256837
-1.55677
-0.158224
0.801434
0.11142
-1.80919
-0.343987
-0.18485
-1.01874
-0.211628
-2.02729
0.130579
-0.586225
0.150208
-3.45605
-0.844983
-3.86977
-4.64389
-2.3163
-1.88236
-0.214118
-3.2232
-0.662775
1.85243
-0.411958
-0.162646
-1.73766
-0.962433
-2.2431
-0.448421
-0.123831
-1.25078
0.74927
0.148972
-1.90817
-4.40647
-3.0495
-0.765285
-2.3689
-1.67465
-0.285485
-0.811382
1.19622
0.0650237
0.403995
-1.23542
-2.09883
-3.26474
-2.71421
-0.343469
0.0561417
-1.43425
0.895305
-2.29281
-3.7614
-1.08649
0.140442
-0.855229
-3.04415
-0.3523
-0.38015
1.37497
-1.17943
0.0829086
-2.54459
-1.16356
2.50926
-1.08321
-1.28695
-1.11796
-1.36286
-1.01404
0.425121
0.415953
-1.01059
-1.77708
-2.82529
-3.51203
-3.84824
-1.21196
-2.60657
1.01292
0.399169
2.22129
-1.10107
0.704323
-0.837109
-0.495985
-0.338166
-0.180687
1.21974
-1.1892
-0.390191
-2.71216
0.034779
-0.399115
-0.166928
-0.525333
-1.53744
-0.640708
0.939725
-2.43084
1.64979
-2.60214
0.759812
0.30972
-0.426427
1.8523
1.08054
-0.604204
-2.47098
2.73431
1.18056
-1.47984
-1.91225
-1.51027
-2.57917
1.12059
0.420538
-2.10426
0.553586
0.566099
-1.28981
-0.276639
-0.671334
-0.286632
0.237089
2.65028
0.764222
1.46502
-1.15093
0.830754
1.29664
-0.336364
0.506162
-2.38379
-0.850986
-5.33269
-2.17547
-2.82411
-0.0429788
-2.09276
-1.56166
-0.754771
1.00774
-2.55804
-2.42221
-3.65026
-3.53512
-1.73052
0.0251635
-0.211601
-0.602251
-1.65459
-1.49989
-5.33857
-3.45072
-5.29211
-1.44103
-3.46453
-2.37954
-1.6654
-0.202635
0.985184
0.277193
1.65206
-1.93437
-1.7943
-2.52669
-1.9844
1.41948
-0.391921
-3.88928
0.643643
-1.77461
-1.07376
-2.38146
-4.23132
-5.46974
-1.54795
-2.18718
-0.698901
1.02659
-1.03787
-0.453407
-1.77361
-0.0381919
0.584114
-0.517936
0.658391
2.42797
-0.106626
-1.15248
-0.718634
0.952537
-2.56887
-1.63931
-1.44101
-1.81024
-1.71983
0.204073
1.43808
-0.0898867
-1.32628
1.68466
-0.0413047
0.432746
0.510929
0.121055
-2.53363
-0.726452
-1.01326
1.22629
-1.47246
1.61568
-2.96611
-1.71195
-2.42989
0.791824
-1.25414
0.537338
0.523343
0.832328
2.1196
-0.634873
-1.66749
-1.55763
-1.65274
-3.86417
-1.8245
0.247455
0.531396
-1.12008
-2.56884
-0.29182
-0.982924
-2.55596
0.0295583
-1.52296
2.66873
-0.64344
-0.462746
-0.707206
-1.1748
-0.563996
-0.181688
-1.45543
-1.62492
-1.19138
-0.131047
0.418212
-0.115587
-0.00142496
1.49563
0.99844
-2.9128
0.0464735
-2.42087
0.173193
-1.57943
1.2598
-0.776954
-0.413271
-1.92405
0.897625
-1.75038
-1.65313
0.130098
-0.623647
-0.497572
0.376312
0.85332
0.898084
-0.535284
-0.896741
-0.70122
-0.320761
1.76641
-0.874932
-0.201558
-0.0525954
1.31917
-0.2883
0.607394
-0.12544
-0.019712
-0.806363
-0.254062
-1.86506
-0.336653
-0.104486
1.9522
-1.17624
3.29889
1.07436
-0.0954774
2.06161
-2.75764
-4.24954
-1.11754
1.63944
0.917705
0.701529
0.295464
-1.22049
-1.03281
-1.47612
-2.35304
-3.17493
-2.36614
1.12581
1.236
0.912336
-0.400485
-1.97623
0.785834
-2.59891
-1.71465
-0.342599
-2.68185
0.363057
1.24379
-0.371148
2.56988
0.367955
-0.455411
-0.183635
0.55923
0.342593
-0.10633
-1.54618
0.287883
-0.53702
-0.0967195
-1.39322
0.0197813
-2.70527
-1.58996
0.0879229
-2.91904
0.462426
-0.35204
0.352869
-1.41351
2.35571
-1.13328
-0.662489
0.841221
-2.11032
-0.531521
0.0254129
0.983222
0.525469
1.6128
-1.10981
-0.713357
-2.73018
-1.03782
-1.13096
-0.750279
-1.24097
2.11916
0.215095
0.050465
0.260344
1.55957
1.18319
0.323717
-0.119868
2.34067
0.55172
-1.41015
-0.405737
2.23284
-1.65752
-2.11335
-0.151317
-0.358563
-0.307108
-1.66726
-0.249713
0.644828
-1.25828
-3.452
1.08253
-0.985792
0.945376
1.38937
-3.00724
-1.11856
0.247779
-0.351707
0.834929
0.563511
1.35767
-0.717989
-1.52717
-1.73132
-0.988614
-2.20631
0.397053
1.13492
0.648232
-0.167779
-1.56507
2.52186
-2.45028
0.816272
-1.25352
-0.52951
-1.71916
2.58059
-0.371582
-0.745192
0.873375
-0.890496
-1.76031
-0.505189
-1.17908
-0.663713
3.5001
-1.88058
0.325466
-1.83515
2.16411
-1.52368
-0.796297
1.08313
1.29006
-2.15299
2.11419
1.44326
0.37753
0.409926
0.294984
1.35133
0.124877
-1.18564
0.467885
1.74361
0.617945
-0.0673475
-4.44361
0.188282
-1.10156
-1.42518
-1.76603
-0.549503
-0.146627
2.07493
-1.67745
-1.00971
-1.60723
0.823605
-1.18953
-0.826566
-2.3104
-2.97662
-1.34412
0.0451339
-1.57822
0.738821
0.795653
-0.649263
-0.160485
0.102826
2.03852
0.502811
0.116658
-1.14641
-0.183199
-0.737153
-0.264601
1.85636
0.853121
-2.34836
-3.07023
-7.40644
-1.38774
-1.01926
0.221457
-1.41935
0.267724
2.16034
-0.992389
-0.462278
0.458133
0.834651
-1.75745
0.707991
0.365979
-1.3873
2.29571
0.509467
2.61163
0.477501
-2.49468
-0.876232
-0.806913
-0.957689
-0.321394
-0.0544242
3.47408
2.17646
2.11703
0.458456
2.23944
0.749406
0.815828
0.189403
2.8353
-1.05951
-1.95651
0.330781
0.453857
-2.30335
-2.707
-1.31316
-0.582586
-0.324395
-0.638141
2.56202
0.807524
-0.861549
1.14265
-0.114336
1.54796
-1.37541
1.52245
-2.18512
-0.722691
0.840731
0.0862173
1.81854
-0.787548
-4.05182
-1.23479
-0.0484386
-1.02282
0.867248
1.45784
-1.18479
1.29362
-1.88576
0.948263
2.68305
0.267814
-0.506139
-0.313955
0.122121
-0.0466748
-1.59191
-2.41628
-1.69262
0.288818
-0.103375
-4.16022
1.14998
-0.306559
-1.65367
0.000304573
1.04906
1.15334
-0.480539
1.22226
0.494136
-0.460589
-1.98918
-0.264531
2.33611
-1.26998
-1.43013
1.00633
-2.17667
0.0725547
-0.261997
0.261825
-0.723455
-0.702127
1.40753
-0.325653
2.18258
1.39667
0.470417
1.56032
1.98059
-0.338564
-1.97839
1.00967
-1.038
0.979398
1.11287
-0.00103777
0.131943
-1.35585
1.22918
-2.27911
-1.57484
-2.60154
-0.790752
1.15294
0.301113
1.55749
-4.34161
0.12761
-0.65343
-0.693003
-0.656081
1.73063
0.551116
0.473103
0.859197
-1.74537
0.0886551
0.995698
-1.53444
-0.908945
-2.13554
-0.288585
-0.366987
2.38797
1.16654
0.865533
2.40497
2.80582
-1.73155
0.242814
0.754292
3.20832
0.819447
1.00727
0.639356
0.771656
-1.2079
1.24554
-0.220447
0.0615912
-1.5468
-0.0591491
-1.26607
-0.265077
0.198039
-1.08044
2.7245
-0.356073
-0.802833
-0.324816
0.437517
3.09016
-0.322073
1.04883
-0.222399
0.246774
0.700309
0.28235
0.131405
0.519779
1.38398
-2.14851
0.43482
1.40565
0.968289
0.818779
1.03459
2.25525
2.19249
1.1802
0.54793
1.73417
2.01962
1.38558
-0.855928
-0.0552454
1.96535
-1.29087
-0.0430659
0.258757
-0.992249
-2.66986
-2.23678
1.05388
2.88115
3.42613
3.50927
0.982092
0.963162
1.32743
0.00935226
2.33869
-0.57381
1.3993
0.286533
-0.00102333
-0.0985344
2.24022
-0.585033
0.275202
-3.28476
0.572052
0.714705
-0.00469388
1.37039
1.58598
-1.27616
2.17549
1.67755
1.23376
-1.5433
-0.675344
2.1444
1.21218
1.85948
0.927921
0.938671
0.506605
3.19421
0.96489
-1.75283
1.71759
-1.9055
0.758207
0.0724688
-0.276596
1.44395
2.00302
0.195826
1.37425
1.02566
-1.15771
-0.0808103
-0.365548
1.80073
-0.411165
-3.55665
-0.472187
1.38301
-1.15142
-0.888197
3.52451
1.01538
-1.84875
0.18325
-0.603627
-2.67286
1.73924
-1.52212
0.364915
-0.29676
-0.432255
-0.175421
1.13861
1.01056
0.751301
-1.65348
-1.68003
0.119069
-2.05167
0.256788
-1.82605
3.64622
0.759253
-0.839651
-0.731142
-0.256079
0.504107
-1.79708
0.63648
0.289793
0.463848
0.176851
-1.19168
-2.22862
0.17904
0.421238
1.21866
-1.21892
1.36956
-0.181407
0.565039
2.85551
2.38366
1.17514
-0.564959
2.91875
1.48037
3.26433
-0.0481504
0.0805176
1.9922
3.14546
3.39582
2.67095
0.148514
2.41018
2.99112
-1.15192
-2.15015
-1.90525
-0.0609257
2.68592
1.23582
3.4378
-0.328511
3.54176
1.4953
0.930674
0.286461
1.00826
2.22924
-0.159927
4.06298
2.17874
2.6399
2.88976
0.586272
0.831858
-1.5301
-1.42841
0.612181
5.66105
2.35475
2.1398
3.88358
2.74442
1.41621
2.31708
-0.0700851
4.11317
-0.831684
2.02154
3.32461
1.31571
0.125501
-0.915458
1.71596
2.73865
-0.766817
3.55998
-0.662071
2.50739
2.63422
2.01515
1.35801
2.52264
0.566012
1.44087
4.10123
1.00642
0.429821
2.57475
-0.430886
-0.88029
1.73763
-0.168055
0.701832
1.45679
-2.04906
0.761919
-2.5088
1.87349
0.604313
-0.571489
1.05719
-0.53136
2.25117
1.56143
-0.627101
-0.500237
-1.21126
5.02167
2.57764
1.04186
-2.45491
3.1574
0.357931
-1.60358
0.75276
1.20089
-1.5672
-0.0347952
1.17434
-1.19827
0.406273
1.80397
0.406768
1.14871
0.609719
1.32738
-0.404175
2.3187
-0.616835
1.11757
-0.806953
1.29392
-0.752662
-4.05046
-0.652804
1.00595
0.851408
-0.987124
1.74509
0.602987
-1.55299
1.19745
-0.00531733
0.45011
0.331942
2.94975
-0.484426
-0.541889
2.35031
-0.232878
0.952422
2.14056
1.50293
1.06909
-3.86877
0.135611
-0.0485233
0.495159
1.92635
1.97585
-1.32389
-1.83496
-0.895378
0.357516
1.38309
-0.906266
1.54677
-2.32101
1.18749
-0.842685
-2.01794
0.689642
2.90381
0.216686
-2.81668
1.64667
1.34061
1.78602
4.60515
4.09601
3.03039
3.7161
4.24406
2.25264
3.63288
5.84388
3.7662
3.69878
1.98171
1.10165
0.790567
3.26599
-0.425724
2.22742
-0.662
-0.748181
0.0643159
1.25381
-0.104115
2.0805
0.175297
5.53888
0.52275
3.29953
0.470769
-0.0629996
2.99976
0.624664
4.66055
0.610068
1.3527
0.25854
3.39496
0.0100406
-2.92125
0.462128
0.405604
3.41222
3.61818
5.16327
2.54659
1.14699
4.51318
3.11938
3.41218
3.65965
0.645215
4.19696
1.78725
3.81504
2.16277
2.97512
1.13771
1.71476
2.15901
-1.18977
-1.20143
1.40759
4.27724
1.86935
3.52242
2.76744
1.4278
2.80656
-0.482669
0.29294
2.25926
0.869839
2.91455
5.28315
3.06354
3.43856
0.0928692
-0.620269
2.68184
-0.733232
1.55906
2.33055
-1.62828
0.36976
4.09627
0.859243
2.04857
0.75283
4.12784
-1.9357
2.68916
1.15829
-0.746701
-1.13096
1.3895
4.31215
-0.704946
-1.84748
-0.0965961
0.449084
-0.940189
0.35375
-0.689006
-0.72031
0.937345
0.571264
1.58445
-1.58793
-2.17844
1.55562
0.678634
-0.266548
1.61022
0.799511
0.723076
1.44936
2.00754
-0.486969
1.76277
1.29557
-1.76933
2.62537
1.98551
1.85569
0.25015
-0.202663
1.03935
1.45684
0.688031
2.00835
1.9957
1.60866
0.841649
-0.294
-1.69384
0.257683
-1.89568
-2.44775
-1.64473
2.00499
-0.0326302
-1.02652
0.936083
-0.479839
-1.71706
-0.0551864
0.132098
-0.0172666
-0.201366
-0.543564
-0.13228
-1.53273
0.590679
-2.48217
0.732161
3.79054
-1.41591
1.20719
-1.9924
0.645877
1.42005
1.93807
4.3691
5.3542
3.99676
5.76529
3.73951
5.86317
3.6597
4.2161
4.86231
2.95237
4.91177
4.25088
7.15833
2.71572
2.42368
1.3379
-0.605702
-0.206012
1.83915
4.80221
1.44702
4.66096
3.67274
3.8006
3.03904
2.09175
5.62748
5.18059
4.51429
5.34384
-0.446972
2.1346
4.4545
3.36301
1.00819
2.91161
-1.35538
2.40535
1.37259
0.462259
4.73917
2.55584
3.44652
4.81361
3.63242
4.52537
4.39054
2.31352
2.45118
2.35845
4.54927
5.19242
2.3374
3.15941
4.23396
1.30736
0.220254
0.53101
6.08072
2.1685
0.142913
-0.999188
1.08156
3.69794
3.2476
2.25313
2.24955
2.20017
3.64192
3.37515
4.29673
-0.163622
2.77557
2.63518
0.985684
1.12793
1.7989
-0.07629
1.26589
1.71006
4.25499
3.7421
0.995575
3.58892
1.39212
-0.125129
1.24601
1.25533
3.11469
1.54996
2.23065
1.96559
1.73824
0.898702
0.218659
4.43079
0.697475
1.55156
-0.584605
2.87334
2.47953
2.17494
1.38328
2.27738
-1.36686
2.96691
2.06712
4.33778
1.07327
-1.19615
-0.411285
2.8378
2.9341
2.94328
1.6873
1.44934
0.527776
2.04901
0.550943
2.66633
-0.427572
4.4569
1.59655
0.919686
1.01495
-0.752361
-0.847046
-0.675979
-1.10957
-0.39879
2.19834
0.743878
0.370751
1.96209
0.953874
-1.06169
1.90365
-1.25147
0.778326
-0.688492
-2.74759
2.16776
0.256306
-0.184064
-0.70777
-2.11025
-1.55658
1.11465
0.16726
1.11575
1.52155
-2.24461
2.79366
0.0437296
1.07039
0.517507
-0.942041
)
;

boundaryField
{
    hotSide
    {
        type            calculated;
        value           nonuniform List<scalar> 
400
(
-5.13002
-2.94601
-4.04236
-1.08859
-4.67987
-0.854933
-6.68689
-3.82917
-3.76312
-3.51093
-4.6096
-2.91827
-0.784396
-4.24122
-1.64751
-1.84532
-0.980478
1.00009
2.85733
1.88848
-2.3251
-0.457563
-2.56735
-2.0273
-3.2228
-2.02267
-2.90506
-1.96921
-1.68316
-2.31235
-3.42421
-4.23424
-0.767342
-1.05507
-3.1127
-0.18823
0.889078
1.76728
2.57028
2.68007
1.62599
1.78509
0.980924
1.89645
1.31021
-0.19457
-0.129938
-1.11078
-1.45898
-0.637113
-1.58199
-0.691499
-1.12234
-1.67405
0.0465064
1.22594
0.83345
4.07854