/*--------------------------------*- C++ -*----------------------------------*\
| =========                 |                                                 |
| \\      /  F ield         | OpenFOAM: The Open Source CFD Toolbox           |
|  \\    /   O peration     | Version:  2212                                  |
|   \\  /    A nd           | Website:  www.openfoam.com                      |
|    \\/     M anipulation  |                                                 |
\*---------------------------------------------------------------------------*/
FoamFile
{
    version     2.0;
    format      ascii;
    arch        "LSB;label=32;scalar=64";
    class       volScalarField;
    location    "0";
    object      relativeErrorField;
}
// * * * * * * * * * * * * * * * * * * * * * * * * * * * * * * * * * * * * * //

dimensions      [0 0 0 1 0 0 0];

internalField   nonuniform List<scalar> 
3200
(
0.0177671
0.00977954
0.00145875
0.00177539
0.016658
0.0117972
0.0114517
0.011
0.00527238
0.0114982
0.0115261
0.0116658
0.00909124
0.00863394
0.0128869
0.00384861
0.00465995
0.00871709
0.00501083
0.00539883
0.0102976
0.00868189
0.00854826
0.00927456
0.00602063
0.0103887
0.0112285
0.00767787
0.010118
0.0113873
0.0105276
0.000264479
0.00877772
0.0137067
0.0143274
0.0107135
0.0102761
0.00509404
0.00232761
0.0105559
0.00831332
0.000113478
0.0039441
0.0033401
0.00830936
0.0139827
0.00556485
0.00684968
0.0113633
0.013003
0.0161012
0.00559959
0.00032895
0.0120516
0.0131589
0.0180655
0.00499371
0.00266257
0.0046988
0.00137809
0.00684332
0.00223265
0.00192424
0.00508401
0.00327632
0.0118387
0.00905883
0.00206148
0.00876324
0.00807654
0.00512765
0.0115151
0.00842501
0.00606831
0.0056861
0.00406714
0.00532776
0.00913728
0.00761364
0.00319424
0.0101128
0.00205078
0.00158597
0.00569486
0.00608619
0.00310114
0.0096955
0.00130352
0.00215396
0.000611696
0.0089067
0.00557076
0.00140455
0.00737305
0.00112061
0.000517903
0.00234435
0.00538718
0.00399204
0.00216858
0.0035676
0.0079156
0.00398584
0.000275313
0.00794214
0.00679172
0.000182707
0.00603496
0.00358527
0.00310425
0.00669497
0.0109782
0.00757091
0.00085505
0.00561582
0.000916127
0.00529398
0.00115481
0.00286854
0.00182975
0.00278537
5.64842e-05
8.49068e-05
0.00280859
0.00234879
0.000623401
0.00138509
0.000410096
0.00101941
0.00310501
0.0109843
0.00851626
0.00223348
0.00289102
0.00228478
0.00751646
0.00061224
0.00337721
0.000968092
0.00550726
1.30028e-05
0.00580574
0.00302042
0.00532125
0.00698863
0.000233747
0.00377662
0.00617763
0.00199065
0.00194647
0.000534533
0.0062225
0.00203213
0.00370037
0.0108078
0.00166983
0.00214812
0.0123043
0.0044093
0.00542909
0.0114418
0.00438468
0.00191763
0.00259649
0.00661438
0.00901105
0.0102973
0.00892657
0.00849856
0.00853329
0.0102448
0.0164481
0.0128213
0.0135928
0.0103659
0.00508607
0.00904093
0.00562335
0.000829191
0.00830961
1.85749e-05
0.00326949
0.00164171
0.000326476
0.00455306
0.00138706
0.0107125
3.71727e-05
0.0118948
0.000142172
0.000297448
0.0046024
0.00118494
0.00226012
0.000870447
0.00517219
0.00122598
0.00250295
0.000552459
0.00455548
0.00708878
0.00199159
0.00743501
0.00624983
0.00503973
0.00659391
0.00820194
0.00510603
0.0116551
0.01022
0.00164037
0.00252758
0.00513247
0.00373514
0.00672618
0.0108615
0.00317591
0.000686668
0.000432455
0.000264547
0.000566401
0.00529973
0.000185072
0.00288002
0.00881822
7.73121e-05
0.00705079
0.000531701
8.66528e-05
0.000156046
0.00635064
0.00906669
0.00911683
0.00292824
0.00183581
0.0076136
0.00608019
0.00518228
0.00427389
0.00336269
0.0099809
0.00767928
0.000288735
0.00322949
0.000954915
0.000884404
0.00344334
0.00381819
0.0113548
0.00169837
0.0100938
0.00399586
0.00570161
0.00260956
0.00434995
0.00796083
0.00118721
0.00337284
0.000777495
0.00370687
0.00763528
0.00519567
0.00213296
0.00362041
0.0129679
0.00544258
0.00980867
0.00243112
0.00339011
0.00541635
0.00402379
0.00552811
0.00390986
0.0022275
0.00153022
0.00501457
0.0053235
0.00310111
0.00500102
0.00756058
0.0103123
0.000430569
0.00417301
0.000688484
0.00396697
0.00388726
0.00283335
0.00138813
0.00540974
0.00561499
0.00536694
0.00871527
0.00400392
0.00387177
0.00375663
0.00399359
0.00880096
0.00793733
0.00883636
0.00439964
0.000438657
0.00343851
0.00937461
0.00755345
0.000148421
0.00307781
0.00897289
0.00544563
0.00444807
0.000734042
0.0109448
0.00633633
0.00801765
0.00230133
0.0105164
0.0125477
0.00376442
0.00190801
0.00642284
0.00166992
0.0146058
0.0104681
0.000394052
0.00597293
0.00773294
0.00395649
0.0120877
0.0111954
0.0102341
0.00448007
0.00650171
0.0018784
0.00561387
0.0163798
0.00437058
0.0150675
0.00760472
0.00319822
0.00106855
0.000783959
0.00430465
0.0028252
0.000692651
0.00112929
0.00477428
0.0089589
0.00944787
0.0117775
0.00795722
0.00428359
0.0167267
0.00229663
0.0148623
0.0102213
0.0082707
0.00957008
0.00114716
0.000367678
0.00154429
0.00460342
0.0115411
0.00437887
0.000176236
0.00196395
0.00255234
0.00230534
0.0078795
0.00945806
0.00880995
0.00724494
0.00552016
0.00218709
0.0120108
0.00873175
0.00520774
0.00507801
0.0028589
0.00406068
0.00302334
0.00679905
0.00398243
0.00823766
0.00404477
0.00313781
0.00115196
0.00143845
0.00353912
0.00759999
0.0010269
0.00392374
0.00164051
0.000365376
0.00293281
0.00233045
0.00431107
0.000161176
0.00978894
0.000116455
0.00813054
0.00890749
0.00909451
0.0016899
0.00639649
0.00496458
0.0045779
0.0041465
0.000329445
0.0024656
0.00316454
0.00395361
0.00686534
0.00635205
0.00266949
0.00277155
0.00740089
0.0029146
0.00530594
0.00414415
0.000546303
0.00996928
0.00426911
0.00492927
0.00429263
0.0083744
0.00175688
0.00186422
2.19996e-05
0.00681031
0.000701921
0.00591189
0.000726426
0.000716061
0.00588283
0.00367381
0.00143139
0.00319095
0.000261566
0.000996296
0.00179504
0.00319569
0.0059652
0.00235158
0.00218483
0.00386929
0.00160273
0.00265552
0.00303658
0.00414786
0.000190323
0.000990858
0.00682105
0.00150029
0.00326484
0.00438088
0.00660836
0.00537376
0.00125222
0.00822265
0.00123705
0.00810641
0.000958348
0.00384177
0.00274336
0.00216582
0.0035512
0.00139379
0.000212314
0.00414778
0.00850096
0.000378597
0.00487113
0.000602621
0.00315835
0.00894261
0.00392506
0.0138112
0.00756329
0.00713163
0.00103899
0.000697559
0.00606228
0.00890123
0.00224049
0.00578459
0.00275249
0.00605228
0.00597368
0.0122791
0.00234198
0.00861129
0.00250174
0.00769414
0.00595241
0.00296283
0.00196706
0.010312
0.00365372
0.0039465
0.0124215
0.00635132
0.00704451
0.000996191
0.000437296
0.00140971
0.00768056
8.63493e-05
0.00198373
0.000689925
0.00569738
0.00167681
0.00129333
0.00429637
0.00107941
0.00606629
0.000257499
0.00173971
0.00140357
0.00200907
0.00128516
0.00226483
0.00706955
0.00712465
0.00107779
0.00145234
0.00572919
0.00402721
0.00230191
0.00909116
0.0021196
0.00711798
0.000594433
0.0033862
0.00222374
0.00322822
0.00180133
0.00182691
0.00184057
0.000396852
0.0108604
0.0110934
0.0122481
0.00669282
0.000483886
0.00221247
0.0047339
0.00192247
0.0051202
0.00100325
0.00166252
0.000288743
0.00184526
0.00476967
0.0106627
0.00509763
0.000447861
0.00490475
0.00343311
0.00609392
0.00136762
0.00198625
0.0141632
0.0148667
0.000401585
0.00267975
0.0110268
0.00196851
0.00604601
0.00155659
0.00725431
0.00126193
0.00126796
0.00861055
0.00116516
0.00244851
0.000231918
0.00847518
0.00236648
0.000191084
0.00579659
0.00737224
0.00746287
0.00773777
0.00625068
0.00247526
0.00956522
0.00490845
0.00531548
0.00222285
0.00320205
0.00813253
0.000290096
0.00072797
0.00138935
0.00118439
0.000615624
0.00400048
0.00574587
0.00022975
0.00638501
0.00343329
0.00350645
0.00353563
0.00425386
0.00620481
0.00117719
0.000783643
0.000314378
0.00165002
0.00408306
0.00140581
0.00313899
0.00243963
0.00790536
0.00867077
0.00399214
0.0047444
0.000396603
0.000773562
0.00142533
0.00241209
0.0014128
0.00757965
0.000728852
0.00199334
0.00144276
0.00669084
0.00642957
0.00929549
0.00185999
0.000990719
0.00721116
0.00110231
0.00420984
0.00400338
0.000924813
0.00246889
0.000276589
0.0089072
0.00188718
0.00979881
0.0164158
0.01233
0.0005588
0.00142685
0.00725091
0.00508441
0.00631807
0.000499532
0.00359506
0.0019622
0.000763087
0.00348027
0.000156239
0.000442171
0.0037991
9.64718e-05
0.00019115
0.00422438
0.00156757
0.0128993
0.0070619
0.000659354
0.000852348
0.00447714
0.00278885
0.0101045
0.00611591
0.00838257
0.00129197
0.00805332
0.0020731
0.00150823
0.00414269
0.00277695
0.00457359
0.00763588
0.000537329
9.50718e-05
0.00377194
0.0105756
0.00828585
0.00309651
0.00263604
0.004912
0.00489556
0.00717055
7.46026e-05
0.011516
0.00512172
0.00334548
0.000531574
0.00632971
0.00643211
0.00825446
0.00136217
0.00833161
0.00330515
0.00351913
0.00199968
0.00123746
0.0115018
0.00190207
0.00265638
0.000863997
0.0015641
0.00482373
0.000406926
0.00431458
0.00284839
0.00172353
0.00111951
0.00105895
0.000279472
0.0071735
0.0038846
0.00135356
0.00438627
0.00161561
0.00391817
0.00831416
0.000519097
0.00240413
0.00756197
0.00582857
0.0034513
0.00955561
0.00161477
0.00542136
0.000792921
0.0100215
0.00585966
0.00495423
0.00640944
0.00333099
0.000786649
0.00132177
0.00711768
0.00242468
0.00100096
0.00052958
0.00416208
0.00317056
0.00304353
0.000125813
0.00488374
7.03862e-05
0.00770624
0.00269739
0.0073348
0.00563346
0.00217834
0.00479542
0.00821473
0.00351042
0.00410424
0.00200485
0.0025288
0.00108457
0.00442528
0.00242496
0.000977774
0.00250834
0.00401913
0.00174291
7.60789e-05
0.00932547
0.00132866
0.00656951
0.00309893
0.00112747
0.00544484
0.00319413
0.00493939
0.0021628
0.00210431
0.00572483
0.00130415
0.000975814
0.00539574
0.00104848
0.00918361
0.000159369
0.00758193
0.00318467
0.00867646
0.00532244
0.0101075
0.0054328
0.00460424
0.00154687
0.0047603
0.0064397
0.00134051
0.0121501
0.000174165
0.00716265
0.000279588
0.00384399
0.000296038
8.5629e-05
0.00538361
0.00886358
0.00374978
0.00248408
0.00265617
0.00526688
0.00693614
0.0031491
0.0030204
0.000929208
5.90519e-05
0.00429901
0.00687576
0.00448795
0.00457134
0.00850555
0.000451032
0.00490072
0.00666407
0.00863977
0.0103623
0.00220332
0.00399716
0.00137261
0.00433208
0.00226172
0.00359228
8.62463e-05
0.00576846
0.0009763
0.00113249
0.00396089
7.21887e-05
0.00234164
0.000235539
0.00705455
0.00116706
0.000617336
0.00158691
0.0142691
0.00910821
0.0132082
0.00238309
0.00182966
0.000704559
0.00594544
0.00556234
0.00316515
0.0028387
0.00104446
0.00280527
0.00228162
0.00516513
0.00799419
0.000218862
0.00199929
0.00210584
0.00904391
0.00783326
0.00955416
0.000722158
0.00153743
0.00126421
0.00103693
0.00267093
0.00265555
0.00182431
0.00122765
0.00187871
0.00246879
0.00366629
0.00522292
0.0112343
0.00439712
0.00251571
0.0105724
0.00360101
0.00285028
0.00647906
0.00183988
0.00346811
0.000395664
0.004721
0.00244602
0.00259312
0.00498994
0.00255102
0.00195045
0.00843897
0.00592748
0.00246348
0.00182947
0.000871843
0.00632026
0.00617094
0.00291243
0.00312483
0.0120516
0.00166244
0.00376122
0.00463001
0.0013537
0.00362819
0.00779463
0.000307541
0.000403013
0.00170194
0.00284564
0.0065619
0.00612297
0.00805482
0.000632806
0.001377
8.79814e-06
0.00245354
0.0044072
0.00286855
0.000914754
0.00125986
0.00655245
0.00196404
0.00327232
0.00426737
0.00637966
0.00654698
0.00492666
0.0104231
0.00031026
0.00349684
0.00521996
0.00795726
0.00377155
0.000303349
0.00572401
0.00120761
0.00031355
0.00566563
0.00533915
0.000177854
0.000617162
0.00153171
0.0142514
0.00118896
0.000946706
0.00135799
0.0018513
0.00196134
0.00659519
0.000300741
0.00232289
0.00424175
0.000591244
0.00121706
0.00333827
0.003343
0.000331268
0.00240301
0.00307443
0.00809193
0.00664416
0.0221294
0.011378
0.00355562
0.00778083
0.00102172
0.0055521
0.00288357
0.00226269
0.0004664
0.00386044
0.00453112
0.00170788
0.00736701
0.00170145
0.000295275
0.00262028
0.000549674
0.00159507
0.000396867
0.00829463
0.0124469
0.005631
0.000811928
0.0050856
0.00506407
0.00219111
0.00713442
0.00336633
0.00228322
0.00190848
0.00455713
0.00560793
0.00168996
0.000300093
0.00290231
0.0050547
0.00204108
0.00670642
0.00237757
0.0132573
0.0124348
0.00360291
0.00351189
0.00586096
0.00048063
0.00377091
0.00689908
0.00461527
0.00772887
0.00464943
0.00332865
0.00507333
0.00258982
0.00305004
0.00013989
0.00127065
0.00194516
0.0121715
0.00123849
0.0107989
0.00495555
0.011094
0.00738082
0.00398767
0.00198155
0.00036332
0.002444
0.00351616
0.00332155
0.00135877
0.0074417
0.00056634
0.000256641
0.00398542
0.00348419
0.00184189
0.00166703
0.00301786
0.00942371
0.010235
0.0127974
0.00619778
0.00925078
0.00149663
0.00171407
0.00570931
0.00543115
0.0051848
0.00374686
0.00560581
0.00113968
0.00946211
0.00364808
0.00380863
0.00434466
0.00107068
0.000956386
0.00466992
0.00465871
0.00694619
0.0022015
0.00428383
0.00798835
0.00445265
0.00353683
0.000328875
0.000763128
0.00141658
0.000342619
0.00643108
0.00985324
0.00571551
0.00323458
0.0068757
1.67649e-05
0.00354022
0.00379889
0.00264921
0.00995062
0.00393793
0.00185532
0.00320699
0.00349114
0.00562202
0.000456259
0.000636043
0.00276605
0.00155916
0.0120477
0.00125021
0.00453247
0.00607125
0.0065453
0.0033014
0.00405823
0.00560688
0.000132829
0.00471359
0.00141542
0.00176145
0.000156729
0.00422534
0.00067849
0.00210679
0.000146527
0.00248941
0.00584924
0.000702636
0.000547672
0.00829902
0.00379303
0.00488471
0.00299999
0.00187089
0.00174919
0.00126552
0.00089732
0.00695006
0.00478994
0.00272472
0.0139
0.00868149
0.00634439
0.00406422
0.00334248
0.00205511
0.00186624
0.00981604
0.00835398
0.00763084
0.00817928
0.00691094
0.00455882
0.00940708
0.00474726
0.00429006
0.00312329
0.0131128
0.00967821
0.0120706
0.00983152
0.000138492
0.00652168
0.00085272
0.0039692
0.00179218
0.000708871
0.00121455
0.00253383
0.0001814
9.03056e-05
0.00469721
0.000879219
0.00198574
0.00111869
0.00137826
0.000433308
0.00816378
0.00313154
0.0153607
0.0105276
0.00220138
0.0110939
0.00535983
0.00197157
0.00661474
0.000506097
0.000540355
0.00483712
0.00234572
0.00139625
0.0031306
0.00720569
0.00175804
0.00483166
0.00323789
0.00682615
0.000557539
0.00874473
0.0136949
0.0123552
0.00394489
0.00815631
0.00461014
0.00441775
0.00398546
0.00136132
0.00313946
0.00392184
0.00157772
0.00777595
0.00408761
0.00381431
0.00676882
0.00470313
0.0017595
0.00684593
0.00768029
0.00630951
0.00225426
0.0013169
0.00173376
0.00887398
0.00201958
0.00340281
0.00529062
0.00056119
0.00430768
0.00898114
0.00028122
0.000140753
0.00748722
0.00670139
0.000135211
0.00294899
0.000639188
0.00828525
0.000999979
0.000846515
0.0108646
0.011396
0.00486775
0.00323794
0.00177606
0.000363005
0.00868844
0.00178699
0.00101111
0.00123482
0.00304192
0.00898552
0.000669378
0.00147445
0.000503907
0.00156186
0.00071865
0.000354788
0.00961309
0.000646298
0.00925224
0.000730406
0.009046
0.0020161
0.0030906
0.00146564
0.00570989
0.0135259
0.00829333
0.000184816
0.00098559
0.00372654
0.00310106
0.00553793
0.00777045
0.000273129
0.00171278
0.000439589
0.00465226
0.000144622
0.00268226
0.00297943
0.00381516
0.00170538
0.00329347
0.00361082
0.000875245
0.00671949
0.00220055
0.000734172
0.000621254
0.00308477
0.00321116
0.0024239
0.00383629
0.000831536
0.00621479
0.00628145
0.0016712
0.00967139
0.00574034
0.0136863
0.00785184
0.0073201
0.00562112
0.00702416
0.00367531
5.59262e-05
0.00718939
0.000661787
0.000320792
0.0132266
0.0210426
0.00482625
0.000462331
0.00544904
0.00121796
0.0010625
0.00711954
0.00950112
0.0062326
0.0222541
0.00873888
0.00995462
0.00318184
0.00563297
0.00174934
0.0101865
0.00387236
0.00223586
0.000910571
0.00932905
0.0108517
0.0120534
0.00423407
0.00191747
0.000465631
0.00376977
0.0041052
0.0104119
0.0111289
0.00394537
0.0105576
0.00663406
0.0042633
0.00438408
0.0020056
0.00198925
0.000260874
0.00971992
0.00449277
0.00212862
0.0102403
0.00495671
0.00489452
0.0084191
0.00842297
0.00672362
0.00750436
0.00692969
0.0108293
0.00901661
0.000956366
0.0128585
0.000930009
0.00617851
0.00699805
0.000851791
0.000113504
0.00816627
0.00950639
0.00753887
0.00319897
0.0129004
0.00502974
0.000276636
5.13089e-05
0.0105189
0.00601511
0.0081866
0.00600075
0.0134325
0.00311952
0.00686423
0.00305764
0.00536387
0.00325261
0.00103772
0.00242081
0.0034209
0.0019516
0.00270591
0.00476153
0.0110687
0.00888027
0.00096524
0.004033
0.00247174
0.0037453
0.00729814
0.000496411
0.00590814
0.00528641
0.00213022
0.00469641
0.00455799
0.00174475
0.00327102
0.000897605
0.00890801
0.00964823
0.00635381
0.00721035
0.00392051
0.00158198
0.000673307
0.00281974
0.00348031
0.00767207
0.00369045
0.0117392
0.00388001
0.00200966
0.00115559
0.000208906
0.00465481
0.00407206
0.00438537
0.00012568
0.00820339
0.000208462
0.000739992
0.00587299
0.00141717
0.000325293
0.00139644
0.00391602
0.00431424
0.00662138
0.00579326
0.000601707
0.00220669
0.00219835
0.00392359
0.00705079
0.00193749
7.84421e-05
0.000381907
0.000207554
5.25203e-06
0.00632498
0.00135543
0.00238079
0.000383373
0.00286357
0.000942526
0.00623583
0.00153608
0.0011392
0.00404007
0.00123525
0.0129431
0.00962752
0.00497501
0.00338824
0.00726137
0.00228473
0.00200565
0.0113314
0.00694163
0.00705808
0.00112063
0.0140683
0.00272403
0.00392866
1.35078e-05
0.000631416
0.000163626
0.00441756
0.0103467
0.00450795
0.0109797
0.00155635
0.000247681
0.000487549
0.00507107
0.000134502
0.000668529
0.000340222
0.0117124
0.000132565
0.00219388
0.00769269
0.000659029
9.79614e-05
0.00235991
0.00455841
5.99578e-05
0.000826199
0.000734846
0.0181414
0.008406
0.00646676
0.00695377
0.00563385
0.0012372
0.00556636
0.00517016
0.0026528
0.00995072
0.00728066
0.00921736
0.00606852
0.00542708
0.00100744
0.00109048
0.00197708
0.00150339
0.00286613
0.00891407
0.00659769
0.013347
0.00874823
0.00124324
0.00111903
0.00368958
0.00156341
0.00133268
0.00051165
0.00589972
0.0107673
0.00390325
0.0131734
0.00253035
0.00438527
0.00812581
0.000416147
0.00349762
0.00900738
0.0021054
0.0094367
0.00368649
0.0116077
0.000561967
0.00670786
0.00266099
0.000101322
0.00731059
0.00216519
0.00242929
0.00664241
0.00263543
0.00556978
0.00542433
0.00864427
0.00417631
0.000843859
0.00292501
0.00720738
0.00185254
0.0116288
0.00116741
0.00578274
0.0014517
0.001492
0.00653157
0.000645776
0.0060568
0.00112767
0.012151
0.00968232
0.0135374
0.00283138
0.0031733
0.00384529
0.00757172
0.000340025
0.000354481
0.005705
0.0108772
0.00383562
0.0109887
0.00317953
0.00335752
0.00426577
0.00221225
0.00421706
0.00255856
0.00212397
0.00393471
5.74126e-05
0.00838608
0.00329032
0.00259247
0.00210816
0.00426324
0.00568244
0.00310554
0.00129928
0.00146859
0.00127425
0.0038157
0.00277223
0.000794066
0.00973266
0.00211503
0.000964368
0.00355909
0.00801275
0.0020218
0.00302758
0.00728998
0.00304139
0.0042207
0.005814
0.00341238
0.00178172
0.00123677
0.00347556
0.00467049
0.00136472
0.016032
0.0127561
0.007637
0.00520461
0.00489886
0.00233402
0.00350378
0.000813222
0.00808032
0.00866138
0.00660454
0.0108274
0.00749836
0.000861668
0.00570232
0.00376971
0.00517338
0.0106979
0.0109546
0.0152568
0.0182208
0.00208657
0.00318915
0.000665122
0.000892263
0.00186838
0.00410346
0.000141519
0.00168932
0.00146327
0.00180365
0.010636
0.000429953
0.00471251
7.2551e-05
0.000157521
0.000114814
0.0166101
0.000447556
0.0168588
0.0151265
0.0137762
0.0115126
0.00546955
0.000708453
0.0010389
0.00567599
0.00604607
0.00498333
0.00100871
0.00163667
0.00455447
0.00254803
0.0143364
0.00344191
0.00378175
0.00298173
0.00779828
0.00526865
0.0118509
0.0162402
0.00688216
0.00421857
0.00874744
0.00809382
0.0025214
0.00642037
0.00619602
0.00262368
0.00300039
0.0101413
0.00714515
0.00667931
0.00520027
0.00114558
0.00434176
0.00415484
0.00676752
0.00839895
0.00783603
0.00758449
0.00177482
0.00623784
0.00183893
0.00499966
0.00258234
0.0103508
0.0124846
0.00726632
0.000105417
0.001833
0.011497
0.00207393
0.00264855
0.00235169
0.000825387
0.000243304
0.000499032
0.00639167
0.000346269
0.00778067
0.00868278
0.000460727
0.00448323
0.0019936
0.00384271
0.00300153
0.00279793
0.00150542
0.00482211
0.00130577
0.0012544
0.00275579
0.00229492
0.00348778
0.00629951
0.0139783
0.000344899
0.00205552
0.0104875
0.00199452
0.000839034
0.00218304
0.00653353
0.00250023
0.00757401
0.00401561
0.00479143
0.0100602
0.00503517
0.00941843
0.00378859
0.00132505
0.000596341
0.00267228
0.00675955
0.000135881
0.00178618
0.00106663
0.0072796
0.00147122
0.00163548
0.00285903
0.00162171
0.00139148
0.00289033
0.00139204
0.000220592
0.00729153
0.00015256
0.00198956
0.00197181
0.00381817
0.00707241
0.00385948
0.00201497
0.00115944
0.00419847
0.000361004
0.000315971
0.0112239
0.0150087
0.00512027
0.00955684
0.00161795
0.00274948
2.65617e-05
0.00472323
0.00678798
0.00537413
0.0104166
0.0101189
0.00404786
0.0038577
0.000464759
0.00575912
0.00415411
0.00256836
0.0130479
0.011014
0.0147358
0.0128655
0.00800712
0.00470724
0.00423782
0.00259916
0.00338795
0.0062941
0.00151622
0.00177655
0.0044084
0.0103558
0.00309079
0.00327312
0.00733241
0.00582312
0.00449171
0.0129618
0.0170469
0.00941626
0.00413939
0.011208
0.000281306
0.0043463
0.000309926
0.00518137
0.00719959
0.00334238
0.00342269
0.00799846
0.00500485
0.00320994
0.00527854
0.00622874
0.00719051
0.00467197
0.00156915
0.00277889
0.00594385
0.0116901
0.00756244
0.00774972
0.00265829
0.00524726
0.000732608
0.00504814
0.000726788
0.00484939
0.0109843
0.00333902
0.00186289
0.000855513
0.000293485
0.00251428
0.00297511
0.00769977
0.00351649
6.37078e-05
0.00965304
0.00521758
0.00590086
0.00337501
0.000275252
0.000960843
0.00123107
0.00895323
0.00220642
0.000784578
0.00382366
0.00156516
0.00291877
0.00604973
0.00744623
0.00275575
0.00130983
0.00869535
0.00669
0.00130313
0.0100467
0.00825429
0.00474828
0.00303197
0.00276919
0.00437656
0.0047642
4.95614e-05
0.00135381
0.0084648
0.00178711
0.00236957
0.00776547
0.00764371
0.000426174
0.00136297
0.00854654
0.00429707
0.00307778
0.00806277
0.00037543
0.00708085
0.000860736
0.00168036
0.00108943
0.000332368
0.00537692
0.00150327
2.42287e-05
0.00221863
0.00610448
0.00230758
0.00322251
0.00343029
0.0020356
0.000904553
0.00404118
0.00147546
0.00777732
0.00236138
0.000567267
0.000507661
0.00158625
0.000231283
0.00163618
0.00439567
0.0019199
0.00121635
0.00224772
0.000563999
0.00719442
0.00687138
0.00793017
0.00592531
0.00200145
0.0028113
0.00150668
0.00644771
0.002336
0.00314075
0.00242178
0.00762008
0.00521931
0.00525214
0.00632716
0.00180005
0.00312839
0.00666772
0.0034334
0.00623638
0.00242107
0.00236435
0.00812329
0.00630342
0.0109196
0.00215927
0.000106622
7.7028e-05
0.00341852
0.00900542
0.00901884
0.0155434
0.0101094
0.000853416
0.00353772
0.000733358
0.00443853
0.000450489
0.00227902
0.000316526
0.00513602
0.000976168
0.000524567
0.00289204
0.000601203
0.00576495
0.00037178
0.0016714
0.000428896
0.00988314
0.00241987
0.0110951
0.0136074
0.00678051
0.00550338
0.000625191
0.00939918
0.00193039
0.00538965
0.00119756
0.000472523
0.00504671
0.0027952
0.00651671
0.00130356
0.000360286
0.00364301
0.00218495
0.000434974
0.00557883
0.0128991
0.00893555
0.00229282
0.00709161
0.00500809
0.000852816
0.0024212
0.00356598
0.000193666
0.00120239
0.00367504
0.00624178
0.00970912
0.00807401
0.00102225
0.000167212
0.00427555
0.00267163
0.00684919
0.0112485
0.00325255
0.000420771
0.00262121
0.00932414
0.0010782
0.00116242
0.00420077
0.00360048
0.000252918
0.00775798
0.00354604
0.00764551
0.00330046
0.00392209
0.00340846
0.0041575
0.00309559
0.00129882
0.0012719
0.00309286
0.00544316
0.00865929
0.0110173
0.0120665
0.0037979
0.00816299
0.00317018
0.00124856
0.00694438
0.00344081
0.00220033
0.00261475
0.00154923
0.00105644
0.000564641
0.00381325
0.00371972
0.00122119
0.00849365
0.000108986
0.00125146
0.000523657
0.00168767
0.00493777
0.00205698
0.0030158
0.00779812
0.00529061
0.00834196
0.00243518
0.000992464
0.00136631
0.00593491
0.00346246
0.00193646
0.00792147
0.00876847
0.00378723
0.00474916
0.00613927
0.0048505
0.00828577
0.00368881
0.00138422
0.00692536
0.00182167
0.0018626
0.00424326
0.000909996
0.00220814
0.000942726
0.000779753
0.00871641
0.00251351
0.0048187
0.00378594
0.00273304
0.00426627
0.00110686
0.00166584
0.00784635
0.00280132
0.0148877
0.00606596
0.00786277
0.000119474
0.00580871
0.00432846
0.00208941
0.00278688
0.00706922
0.0066914
0.0100839
0.00976941
0.00478573
6.96591e-05
0.000586495
0.00167162
0.00459949
0.00417592
0.0148858
0.00963363
0.0151018
0.0041078
0.00986294
0.00676483
0.00472824
0.000574579
0.00279046
0.00078443
0.00467222
0.00546885
0.00507286
0.00714581
0.00561566
0.00402056
0.00111131
0.0110421
0.00182983
0.00505203
0.00306087
0.00679585
0.0123481
0.0159478
0.00450813
0.0063622
0.00203063
0.00297949
0.00300936
0.00131366
0.00513591
0.000110562
0.00169096
0.00149981
0.00190757
0.00704003
0.000309463
0.0033485
0.0020904
0.00277409
0.00748991
0.00478397
0.00430268
0.00540112
0.0051265
0.000607699
0.00427821
0.000267165
0.00393886
0.00499997
0.000122534
0.00128348
0.00151536
0.000359121
0.00751966
0.00215746
0.00301164
0.00364815
0.00438475
0.00481605
0.00884986
0.00511168
0.00742732
0.00241891
0.00382833
0.00163895
0.00159502
0.0025349
0.00645121
0.00193131
0.00507071
0.00473574
0.0050249
0.0117507
0.00555019
0.000753156
0.00161839
0.00341373
0.00783528
0.000890794
0.0030027
0.00781265
9.25418e-05
0.0047661
0.0083472
0.00201137
0.0014457
0.00220826
0.00366662
0.00175959
0.000566694
0.00453892
0.00506752
0.00371596
0.000408848
0.00130526
0.000360922
4.45183e-06
0.00467529
0.0031229
0.0091156
0.0001455
0.00776778
0.000555576
0.00506483
0.00403842
0.00248974
0.00132389
0.00616179
0.00287398
0.00560338
0.00529162
0.000416438
0.00199644
0.00159311
0.00120514
0.00273355
0.00287789
0.00171591
0.00287563
0.0022494
0.00102922
0.00581232
0.00287869
0.000663088
0.000173007
0.00433877
0.000948112
0.0019973
0.000412451
6.48102e-05
0.00265113
0.000835296
0.00613207
0.00110693
0.000343583
0.00642007
0.00386865
0.0108513
0.00353444
0.000314138
0.0067837
0.00765455
0.0117824
0.0030943
0.00453294
0.00253391
0.00193457
0.000813878
0.00335891
0.00284063
0.00405856
0.00646963
0.00873226
0.00651188
0.00310114
0.00340845
0.00251909
0.00110731
0.00547186
0.00217883
0.00721395
0.00486817
0.000971749
0.00759761
0.00102724
0.00351494
0.00104768
0.00724712
0.00103682
0.00128253
0.000517006
0.00157445
0.000964815
0.000299616
0.00436026
0.000812637
0.00151761
0.000273661
0.00394696
5.61079e-05
0.0076807
0.0046196
0.000255248
0.00846538
0.00133961
0.00101875
0.00102016
0.00408302
0.00679991
0.00326971
0.00191092
0.00242646
0.00608866
0.00153427
7.34068e-05
0.00284253
0.00152063
0.00467214
0.00321852
0.00207094
0.00793251
0.00308745
0.00336223
0.00222856
0.00368271
0.00628329
0.000637232
0.000149398
0.000770288
0.00461245
0.00349856
0.000957198
0.000354514
0.00692542
0.00163333
0.00417766
0.00120301
0.00662621
0.00492335
0.00628276
0.000450157
0.0010928
0.000935481
0.0050751
0.000759571
0.00196004
0.00382222
0.01048
0.00328497
0.00299043
0.00286734
0.00421397
0.00912257
0.00339428
0.000752235
0.00106836
0.00253788
0.00171408
0.00413271
0.00218706
0.00465441
0.00540887
0.00308737
0.00688665
0.00123868
0.00353876
0.00202027
0.000522676
0.00487398
0.00785175
0.00762793
0.00254113
0.00390281
0.00164901
0.00535567
0.00804261
0.00115862
0.00232477
0.0027261
0.00278095
0.00549945
0.00161886
0.0037774
0.00212567
0.0112061
0.00601904
0.00104139
0.00587039
0.00692124
0.00487228
0.00254614
0.00346327
0.00412525
0.00688566
0.00676298
0.00461796
0.00120833
0.00131244
0.000944743
0.00432923
0.000400165
0.00389956
0.00153875
0.00573363
0.00203181
0.000221415
0.0146075
0.000618887
0.00362057
0.00468402
0.0058041
0.00180595
0.000481904
0.00681985
0.0055138
0.00331924
0.00528401
0.00270802
0.00391161
0.00271835
0.00759891
0.00821176
0.00370427
0.00012423
0.00433844
0.00202847
0.00218202
0.00177879
0.000439331
0.000281331
0.00557579
0.00137529
0.000319176
0.00313832
0.000501912
0.00202159
0.000726478
0.00510304
0.00234819
0.00647187
0.00846998
0.0209142
0.00391518
0.00287242
0.000623389
0.00399102
0.000752042
0.00606309
0.00278322
0.00129584
0.00128389
0.00233907
0.00492644
0.0019856
0.00102714
0.00389696
0.00645522
0.00143412
0.00735995
0.00134716
0.00704444
0.00253396
0.00233173
0.00276479
0.00092693
0.000156815
0.0100013
0.00626084
0.00608614
0.00131742
0.00643386
0.00215303
0.00234437
0.000544505
0.00815609
0.00305016
0.00563739
0.000954005
0.00131026
0.00665597
0.00782832
0.00389123
0.00172528
0.000959905
0.00188674
0.00756887
0.00238388
0.00254174
0.00336929
0.000337017
0.00456193
0.00405341
0.00448756
0.00644319
0.00213208
0.00248191
0.000254708
0.00537672
0.0023304
0.0119991
0.00365902
0.000147167
0.00310602
0.00263192
0.00442136
0.00359095
0.00391848
0.0057092
0.00286972
0.00811732
0.000810126
0.00153105
0.000949841
0.000369572
0.00014131
0.00482203
0.00732343
0.00513339
0.000876505
0.000313922
0.0126397
0.0035845
0.000955207
0.00515028
9.4812e-07
0.00326414
0.00358706
0.00149398
0.00379881
0.00153547
0.00143107
0.00618046
0.000821997
0.00726069
0.00394832
0.00444791
0.00313117
0.00677587
0.000225968
0.000816356
0.00081611
0.00231502
0.00224628
0.00450174
0.00104124
0.00697655
0.00446319
0.00150292
0.00498407
0.00632569
0.00108125
0.00631824
0.00322474
0.00331566
0.00312905
0.00355628
3.31718e-06
0.000421874
0.00433645
0.00393247
0.00729305
0.00517713
0.00855167
0.00259907
0.00378911
0.000989507
0.00511771
0.0142648
0.00041925
0.00214667
0.00227663
0.00215533
0.00568553
0.00181063
0.00155443
0.00282321
0.00573557
0.000291364
0.0032727
0.00504394
0.00298806
0.0058534
0.000790253
0.00100381
0.00652417
0.00318355
0.00235967
0.00655079
0.00763723
0.00471081
0.000660425
0.00205158
0.00872847
0.00223047
0.00274366
0.00174306
0.00210589
0.00330009
0.00340686
0.000603666
0.000168818
0.00434293
0.000165937
0.00354827
0.000742137
0.000553901
0.00301918
0.00760731
0.000993597
0.00223926
0.000905768
0.00122004
0.00861907
0.000898721
0.00292853
0.000621469
0.00069021
0.00196066
0.00079131
0.000368644
0.00145938
0.0039826
0.00617836
0.00124931
0.00403506
0.00277717
0.00234651
0.00296297
0.00645528
0.00627325
0.00337618
0.00156745
0.00496189
0.00578082
0.00396816
0.00245297
0.000158451
0.00564173
0.00370889
0.000123843
0.000744612
0.00292821
0.00787445
0.00659235
0.00310372
0.00847899
0.0100761
0.0103147
0.00288531
0.00282879
0.00389797
2.74628e-05
0.00686869
0.00168581
0.00411293
0.000842683
3.01157e-06
0.000290188
0.0066025
0.00172549
0.000812143
0.00994714
0.00173155
0.00216209
1.41912e-05
0.00414076
0.00478967
0.00385224
0.00656453