/*--------------------------------*- C++ -*----------------------------------*\
| =========                 |                                                 |
| \\      /  F ield         | OpenFOAM: The Open Source CFD Toolbox           |
|  \\    /   O peration     | Version:  2212                                  |
|   \\  /    A nd           | Website:  www.openfoam.com                      |
|    \\/     M anipulation  |                                                 |
\*---------------------------------------------------------------------------*/
FoamFile
{
    version     2.0;
    format      ascii;
    arch        "LSB;label=32;scalar=64";
    class       volScalarField;
    location    "./ITHACAoutput/true/8.8";
    object      error;
}
// * * * * * * * * * * * * * * * * * * * * * * * * * * * * * * * * * * * * * //

dimensions      [0 0 0 1 0 0 0];

internalField   nonuniform List<scalar> 
3200
(
0.34083
2.18262
3.66686
4.65591
5.06381
5.28077
5.0815
4.98221
4.64989
4.33735
4.07773
3.99287
3.98724
4.02585
3.99223
3.82561
3.43864
2.49115
1.01166
-0.711436
-0.0679569
1.4259
2.82566
3.68511
4.09374
4.15263
4.1585
3.88232
3.71687
3.55889
3.27364
3.22875
3.25524
3.2949
3.27015
3.11413
2.74542
1.95343
0.7078
-0.813609
-0.308562
0.977586
2.07653
2.82758
3.15997
3.28033
3.28119
3.20007
2.92935
2.76432
2.58598
2.54544
2.47623
2.58266
2.62999
2.55358
2.24779
1.54248
0.458957
-0.776756
-0.396713
0.644711
1.4788
2.10076
2.4791
2.60622
2.49317
2.51157
2.20937
2.24252
2.03714
2.01681
2.01637
2.00269
2.03152
2.05466
1.73932
1.18203
0.248805
-0.602934
-0.510239
0.321593
1.0062
1.54128
1.74941
1.86364
1.89628
1.88265
1.77211
1.55837
1.58989
1.48997
1.51012
1.53174
1.55349
1.55276
1.34868
0.870425
0.200739
-0.533507
-0.36995
0.139667
0.662279
0.990377
1.23598
1.28759
1.34971
1.18023
1.22356
1.13694
0.949646
1.06936
1.06834
0.976642
1.07535
1.0193
0.847142
0.60707
0.0243383
-0.394289
-0.18141
0.147845
0.392026
0.613551
0.684595
0.783639
0.781106
0.656469
0.673069
0.649991
0.611589
0.581003
0.62431
0.613247
0.682208
0.601796
0.475912
0.378026
0.0206285
-0.260581
-0.0593142
-0.0018734
0.129173
0.26128
0.169391
0.302922
0.242681
0.144029
0.23982
0.209666
0.246497
0.217519
0.179149
0.207504
0.221623
0.264958
0.223836
0.0686413
-0.0206034
-0.142791
0.270366
1.99648
3.57324
4.45876
4.86901
4.87869
4.70509
4.39062
4.05408
3.72591
3.54162
3.49161
3.40872
3.45993
3.53599
3.47712
3.14126
2.27667
0.830862
-0.968515
-0.154721
1.30789
2.65847
3.54404
3.8964
3.91246
3.83193
3.59571
3.31899
3.01931
2.80649
2.75152
2.85013
2.82701
2.86991
2.87076
2.54514
1.81412
0.531367
-0.876822
-0.407752
0.852382
1.97598
2.67418
3.06289
3.08063
3.01378
2.86465
2.58502
2.46373
2.22586
2.21472
2.24643
2.25695
2.38346
2.35616
2.04044
1.44087
0.321495
-0.801741
-0.460206
0.492401
1.4434
2.05179
2.31258
2.33497
2.30903
2.15093
1.93885
1.87965
1.74476
1.70166
1.65837
1.78826
1.80879
1.86406
1.61709
1.08392
0.219298
-0.625554
-0.515437
0.330565
0.984727
1.44355
1.6754
1.75196
1.72198
1.63767
1.48946
1.36604
1.32278
1.30057
1.38199
1.31556
1.38368
1.31025
1.20205
0.812778
0.0881863
-0.581233
-0.418236
0.169318
0.59492
1.01253
1.20347
1.18506
1.23513
1.14667
1.0779
0.94143
0.874924
0.854767
0.909827
0.935376
0.923653
0.921923
0.841393
0.508983
0.0528799
-0.410537
-0.312795
0.0705077
0.335647
0.581678
0.682628
0.734336
0.748443
0.607954
0.620409
0.56738
0.550837
0.526028
0.506568
0.584968
0.480148
0.51412
0.531868
0.292828
0.140516
-0.205089
-0.145874
-0.0276566
0.0999475
0.206254
0.24612
0.293003
0.175916
0.213754
0.18497
0.211674
0.187911
0.141682
0.182197
0.161119
0.201099
0.229867
0.110428
0.0589756
-0.0658888
-0.15672
0.0208794
1.73658
3.2539
4.11029
4.35503
4.39431
4.12617
3.74497
3.41828
2.91872
2.80662
2.69389
2.66546
2.85607
2.9514
2.94513
2.72107
1.95632
0.51834
-1.09729
-0.319568
1.09388
2.3138
3.16474
3.47736
3.52658
3.3243
2.99327
2.69312
2.39322
2.13998
2.05222
2.23379
2.32098
2.36859
2.40449
2.09353
1.52015
0.329875
-1.09831
-0.567763
0.593536
1.80553
2.39619
2.74762
2.76885
2.67238
2.38783
2.14995
1.81282
1.69024
1.63492
1.71916
1.78786
1.9466
1.91169
1.76255
1.06951
0.0893429
-0.997102
-0.650432
0.317171
1.26049
1.75633
2.08854
2.08749
2.00868
1.76988
1.63217
1.42301
1.29228
1.27623
1.40029
1.41763
1.47943
1.46723
1.29881
0.825421
-0.039596
-0.854262
-0.585715
0.168535
0.894292
1.31857
1.53387
1.54278
1.46015
1.32897
1.23695
1.05542
1.04783
0.931789
0.899598
1.05402
1.13355
1.15524
0.994354
0.592989
-0.117398
-0.784367
-0.513585
-0.0476177
0.594653
0.891392
1.07026
1.04866
1.02451
0.988234
0.811993
0.726327
0.672582
0.695685
0.666767
0.678106
0.79825
0.803096
0.671337
0.398021
-0.000125724
-0.488649
-0.324626
0.0122465
0.295868
0.532462
0.598059
0.657092
0.602741
0.586788
0.509515
0.391111
0.413806
0.388528
0.382249
0.363035
0.44715
0.485983
0.424393
0.2424
-0.028325
-0.351614
-0.102232
0.126516
0.138435
0.112163
0.223073
0.212817
0.238586
0.202405
0.131673
0.133029
0.133906
0.209293
0.139817
0.0797182
0.178984
0.236824
0.168832
0.121554
-0.0568783
-0.168048
-0.325975
1.31026
2.75763
3.56743
3.83069
3.77649
3.48903
2.97684
2.49692
2.14419
1.74865
1.62756
1.79523
1.99608
2.17532
2.29833
1.99333
1.32208
0.0523225
-1.5576
-0.580415
0.778557
1.96744
2.66939
2.96675
2.98588
2.72123
2.31152
1.92505
1.6214
1.39164
1.32001
1.33619
1.5673
1.77781
1.83711
1.67257
1.01534
-0.0944431
-1.46213
-0.782011
0.38703
1.32526
2.08198
2.3592
2.32773
2.06947
1.78557
1.44653
1.28762
1.01221
0.993048
1.09468
1.23326
1.35858
1.39102
1.28165
0.693949
-0.26479
-1.34299
-0.822619
0.147148
1.01048
1.48792
1.75178
1.79599
1.60232
1.34752
1.07954
0.863627
0.767645
0.7168
0.800687
0.874922
1.0509
1.12706
0.984107
0.495711
-0.305714
-1.07326
-0.784254
0.0285247
0.65613
1.03559
1.29973
1.25628
1.17163
1.03861
0.827896
0.624605
0.530532
0.529342
0.565879
0.739451
0.740149
0.766082
0.67321
0.402145
-0.281104
-0.878867
-0.523886
-0.0772636
0.435167
0.726024
0.875504
0.84954
0.850637
0.65687
0.458227
0.440763
0.316014
0.387759
0.432223
0.423115
0.504317
0.587207
0.482684
0.231515
-0.225336
-0.658485
-0.387386
-0.0398734
0.151257
0.441747
0.533088
0.476351
0.387575
0.351171
0.348037
0.211797
0.19159
0.133595
0.24484
0.272155
0.277601
0.35063
0.194516
0.133957
-0.108549
-0.394794
-0.132286
0.0168394
0.0776869
0.136646
0.0605245
0.20154
0.148678
0.0992342
0.12784
0.0479133
0.0522082
0.134092
0.0288112
0.0744915
0.0192955
0.116765
0.0446995
0.0581846
-0.00948307
-0.117944
-0.828042
0.688951
2.12839
2.96919
3.18764
3.07287
2.71312
2.15324
1.54232
1.12719
0.731648
0.73426
0.748014
1.13429
1.37111
1.42094
1.35081
0.643529
-0.55659
-2.05107
-1.01127
0.347618
1.5294
2.26926
2.49531
2.36997
2.04352
1.72089
1.17886
0.795263
0.53145
0.433108
0.565528
0.821634
1.01173
1.21195
0.94282
0.466769
-0.621472
-1.81854
-1.17752
0.0711668
1.01297
1.64005
1.85241
1.82407
1.54504
1.1863
0.937216
0.410034
0.32549
0.251519
0.342175
0.558323
0.764784
0.857433
0.783089
0.291131
-0.675458
-1.70703
-1.066
-0.137428
0.715512
1.10394
1.3427
1.34889
1.12507
0.87935
0.612646
0.326042
0.207688
0.149661
0.197146
0.417528
0.580432
0.639063
0.5442
0.158316
-0.650711
-1.4804
-0.989086
-0.275985
0.436025
0.84256
1.01589
0.936485
0.892764
0.73144
0.465264
0.213732
0.0883153
0.0118319
0.201327
0.28809
0.370258
0.435761
0.37079
0.108308
-0.505461
-1.12151
-0.70829
-0.219784
0.22544
0.467094
0.666395
0.693972
0.572377
0.40802
0.324736
0.162519
0.0459471
0.0919658
0.0912487
0.18833
0.318966
0.307228
0.238423
0.115553
-0.37964
-0.751832
-0.521088
-0.118381
0.17002
0.246536
0.391962
0.35112
0.194124
0.316787
0.206472
0.108563
0.000946973
0.0265806
0.051413
0.145023
0.195169
0.181873
0.172403
0.0233174
-0.231752
-0.515396
-0.182441
-0.0762117
-0.0192285
0.160194
0.173349
0.206474
0.160142
0.145001
0.0381836
0.0566186
-0.00366886
-0.0329003
0.0117944
0.0132381
0.0214127
0.0753191
0.094304
0.0217808
-0.117859
-0.156646
-1.30193
0.2701
1.5411
2.26223
2.52998
2.31649
1.90111
1.34528
0.707065
0.183157
-0.26425
-0.230407
-0.197468
0.144206
0.570352
0.767774
0.609203
-0.131029
-1.1316
-2.66524
-1.40183
-0.180593
0.960374
1.62733
1.93757
1.77821
1.35534
0.919028
0.391497
-0.0397072
-0.378288
-0.38861
-0.241014
0.069052
0.299886
0.616979
0.278822
-0.185792
-1.23361
-2.36892
-1.5485
-0.430659
0.546301
1.19739
1.36804
1.25541
1.00364
0.677247
0.210629
-0.125388
-0.377355
-0.456353
-0.362388
-0.0752951
0.215824
0.257966
0.177792
-0.186834
-1.12746
-2.0687
-1.37662
-0.506881
0.304267
0.728353
0.959446
0.866722
0.683384
0.410692
0.033429
-0.206362
-0.335765
-0.432653
-0.327126
-0.0524214
0.135587
0.25157
0.0862481
-0.223272
-0.971281
-1.70763
-1.17944
-0.504599
0.151433
0.567627
0.656206
0.616593
0.529596
0.318413
-0.0417451
-0.284466
-0.393359
-0.388163
-0.284043
-0.073484
0.0726649
0.170487
0.100037
-0.265061
-0.825824
-1.37312
-0.877444
-0.491067
0.088351
0.25612
0.522756
0.335048
0.273649
0.220542
0.0656361
-0.12976
-0.262851
-0.300081
-0.279013
-0.124112
0.0701405
0.0765277
0.0244192
-0.215281
-0.567723
-1.07319
-0.544531
-0.192603
-0.00494619
0.174414
0.196992
0.234244
0.194465
0.0813436
-0.0438526
-0.0971966
-0.0997979
-0.154258
-0.155902
-0.0811862
-0.0308524
0.00553882
-0.0593885
-0.142653
-0.360618
-0.668106
-0.220156
-0.134278
-0.0431343
0.038582
0.013831
0.0715951
0.019014
-0.00499639
-0.0403169
-0.137536
-0.0137461
-0.0905867
-0.0646362
-0.0395166
-0.000268279
-0.0102567
0.0763016
0.0202492
-0.0911927
-0.188079
-1.8278
-0.330498
0.813727
1.66612
1.86026
1.70571
1.17022
0.534697
-0.13253
-0.753873
-1.16557
-1.21943
-1.04464
-0.729627
-0.320966
-0.0341468
-0.110835
-0.784727
-1.93223
-3.17926
-1.90591
-0.687766
0.384289
1.10265
1.33996
1.19516
0.808762
0.233156
-0.334924
-0.866387
-1.13828
-1.16054
-0.985034
-0.814231
-0.396403
-0.166218
-0.293973
-0.865433
-1.74989
-2.87868
-1.83738
-0.833483
0.0747535
0.767795
0.870745
0.822581
0.55325
0.0369881
-0.388659
-0.810807
-1.11538
-1.09669
-0.952661
-0.657185
-0.394337
-0.216716
-0.363645
-0.722051
-1.53805
-2.45095
-1.6185
-0.878281
-0.0625856
0.420544
0.560678
0.508844
0.337552
-0.0578503
-0.40973
-0.760438
-0.956079
-1.0227
-0.74828
-0.615093
-0.458709
-0.262383
-0.315228
-0.698361
-1.31052
-2.13836
-1.4317
-0.771361
-0.161731
0.173545
0.30308
0.346491
0.170423
-0.0817978
-0.383051
-0.609926
-0.76622
-0.816217
-0.614247
-0.56757
-0.271944
-0.246518
-0.269339
-0.566111
-1.04178
-1.67959
-1.07369
-0.53834
-0.190671
0.0721447
0.24939
0.219837
0.0999825
-0.11204
-0.258286
-0.521443
-0.52215
-0.579283
-0.551991
-0.356704
-0.243098
-0.133975
-0.220402
-0.466544
-0.77932
-1.17542
-0.703036
-0.330695
-0.160648
0.107823
0.129907
0.202175
-0.0334682
-0.0665725
-0.169901
-0.29426
-0.378628
-0.333158
-0.313485
-0.22963
-0.117475
-0.113631
-0.182307
-0.207564
-0.499489
-0.708569
-0.234978
-0.107271
-0.0771038
-0.0433658
-0.0139859
0.0546343
-0.0330286
-0.043815
-0.0563799
-0.0889098
-0.156103
-0.197841
-0.0496338
-0.114073
0.0325863
-0.00783435
-0.0406849
-0.0888894
-0.2362
-0.163671
-2.2734
-0.95173
0.169572
0.988841
1.1701
0.960776
0.517494
-0.119308
-0.82614
-1.52829
-1.92037
-2.01764
-1.83452
-1.40308
-1.017
-0.715249
-0.888921
-1.46254
-2.47566
-3.80768
-2.3626
-1.21263
-0.161759
0.489562
0.681614
0.559935
0.263112
-0.283
-0.892039
-1.55256
-1.83715
-1.90869
-1.72657
-1.30666
-0.986306
-0.734384
-0.915377
-1.35335
-2.28237
-3.39263
-2.21264
-1.17237
-0.305886
0.208002
0.425026
0.259696
-0.0303322
-0.48843
-0.949242
-1.33254
-1.6428
-1.74326
-1.51024
-1.22331
-0.899846
-0.820028
-0.822182
-1.33895
-2.00973
-2.93579
-1.89454
-1.20688
-0.457227
0.032393
0.167026
0.152604
-0.0824833
-0.460422
-0.826783
-1.15312
-1.47072
-1.44751
-1.34598
-1.0071
-0.866464
-0.685548
-0.736488
-1.03526
-1.71716
-2.42597
-1.55984
-0.982648
-0.484881
-0.0595514
0.143471
0.0144359
-0.164529
-0.370066
-0.637478
-0.884602
-1.1577
-1.18913
-1.11181
-0.81592
-0.673631
-0.588567
-0.570749
-0.840856
-1.35772
-1.86587
-1.20823
-0.760536
-0.362075
-0.153516
0.00278559
0.0512998
-0.0764551
-0.348942
-0.540549
-0.772038
-0.820022
-0.92295
-0.782999
-0.519375
-0.491389
-0.448522
-0.423567
-0.78396
-1.02206
-1.41066
-0.736858
-0.479595
-0.227629
-0.0660501
0.0379407
0.0173734
-0.0669058
-0.232698
-0.329422
-0.438299
-0.53382
-0.530735
-0.419742
-0.321177
-0.216574
-0.215466
-0.332672
-0.381156
-0.599555
-0.866683
-0.218229
-0.204113
-0.13074
-0.0218099
0.0171526
0.0268313
-0.0858554
-0.143263
-0.156941
-0.109994
-0.171422
-0.178866
-0.123405
-0.136523
-0.13473
-0.0515675
-0.095818
-0.170628
-0.19318
-0.292096
-2.71959
-1.39188
-0.301223
0.3944
0.581151
0.34015
-0.0475463
-0.653357
-1.55137
-2.19535
-2.63524
-2.73096
-2.47896
-2.03969
-1.5427
-1.42214
-1.54668
-2.06096
-3.03906
-4.19726
-2.70423
-1.54993
-0.582626
0.0820074
0.22732
0.131057
-0.296213
-0.897445
-1.45469
-2.05172
-2.43064
-2.39933
-2.28203
-1.90194
-1.53905
-1.3006
-1.43206
-1.89295
-2.78853
-3.79397
-2.54315
-1.61229
-0.726929
-0.224566
-0.0244554
-0.172025
-0.464951
-0.898565
-1.40838
-1.84252
-2.02794
-2.18605
-1.97109
-1.76239
-1.36918
-1.18834
-1.26902
-1.69277
-2.39376
-3.24123
-2.21203
-1.50502
-0.792836
-0.288187
-0.0561567
-0.190514
-0.426952
-0.795716
-1.14779
-1.57414
-1.80519
-1.83032
-1.68462
-1.34833
-1.23619
-1.05004
-1.037
-1.47766
-2.09302
-2.72141
-1.85493
-1.20933
-0.715474
-0.352435
-0.240801
-0.239992
-0.381471
-0.702347
-0.994384
-1.1659
-1.39342
-1.45315
-1.37669
-1.15003
-0.895418
-0.76335
-0.861896
-1.15926
-1.54664
-2.16035
-1.33231
-0.901222
-0.485933
-0.311029
-0.180194
-0.157702
-0.353049
-0.540706
-0.766079
-0.938902
-0.972442
-1.05147
-0.913329
-0.819454
-0.648494
-0.593429
-0.70533
-0.81975
-1.15586
-1.48943
-0.887776
-0.529623
-0.293181
-0.263241
-0.0935782
-0.12803
-0.1872
-0.327306
-0.401492
-0.597375
-0.569795
-0.630601
-0.623387
-0.542784
-0.442343
-0.374543
-0.404663
-0.481455
-0.70296
-0.934917
-0.254553
-0.15776
-0.0790854
-0.0161817
-0.0953876
-0.0922264
0.0130591
-0.112242
-0.119736
-0.253538
-0.246828
-0.255536
-0.202535
-0.138566
-0.211714
-0.144265
-0.171572
-0.13802
-0.204502
-0.363425
-3.0685
-1.91499
-0.840822
-0.133935
0.109667
0.00280954
-0.516102
-1.16186
-1.88337
-2.62536
-2.99747
-3.13998
-2.92143
-2.50749
-2.02995
-1.89309
-1.98488
-2.47803
-3.43773
-4.62525
-2.98569
-1.94607
-0.971871
-0.385059
-0.151584
-0.322102
-0.63297
-1.17698
-1.8793
-2.39454
-2.70547
-2.84606
-2.6272
-2.37789
-1.99232
-1.75796
-1.86146
-2.27906
-3.0249
-4.13538
-2.72034
-1.84468
-1.05079
-0.533711
-0.270303
-0.417203
-0.660942
-1.13394
-1.67906
-2.07348
-2.42066
-2.45696
-2.21053
-2.0117
-1.65412
-1.51483
-1.57905
-1.9331
-2.69361
-3.49465
-2.39795
-1.70859
-1.0245
-0.590934
-0.318169
-0.48502
-0.748968
-1.14731
-1.39326
-1.77984
-2.03395
-2.04879
-1.94201
-1.64736
-1.50977
-1.35538
-1.40442
-1.70623
-2.3251
-2.95681
-1.89884
-1.37592
-0.87479
-0.508856
-0.405168
-0.424361
-0.567865
-0.796766
-1.14271
-1.38373
-1.63794
-1.59455
-1.52996
-1.38159
-1.16003
-1.08925
-1.15121
-1.3329
-1.8339
-2.3199
-1.46504
-0.984886
-0.645853
-0.4095
-0.348506
-0.342043
-0.471412
-0.619244
-0.886694
-1.05599
-1.17513
-1.19581
-1.10337
-1.05217
-0.839467
-0.756694
-0.858596
-0.88522
-1.3657
-1.64998
-0.863834
-0.643041
-0.530211
-0.236044
-0.230028
-0.207212
-0.276789
-0.371746
-0.485626
-0.587895
-0.714259
-0.725174
-0.619261
-0.558675
-0.559685
-0.484412
-0.463953
-0.610555
-0.809573
-1.00584
-0.418022
-0.197592
-0.163212
-0.122997
-0.0268019
-0.1282
-0.138913
-0.110798
-0.216754
-0.234743
-0.201518
-0.180633
-0.228981
-0.239556
-0.241763
-0.179186
-0.107476
-0.331037
-0.256808
-0.312879
-3.29593
-2.16222
-1.16423
-0.445318
-0.25183
-0.406256
-0.744609
-1.46686
-2.0949
-2.73665
-3.19405
-3.35332
-3.09772
-2.81225
-2.42219
-2.14431
-2.25253
-2.85688
-3.71257
-4.82812
-3.17169
-2.22152
-1.28146
-0.659418
-0.380685
-0.602647
-0.821488
-1.47191
-1.93887
-2.58
-2.8637
-2.92066
-2.70741
-2.44765
-2.15826
-2.0882
-2.03674
-2.54728
-3.32992
-4.24706
-2.86142
-2.13026
-1.34022
-0.746991
-0.549483
-0.695926
-0.961918
-1.346
-1.83192
-2.25565
-2.59074
-2.54415
-2.47678
-2.19802
-1.86304
-1.73162
-1.85347
-2.25593
-2.93344
-3.61782
-2.57412
-1.78024
-1.21635
-0.741874
-0.619717
-0.614294
-0.897568
-1.21728
-1.50069
-2.00258
-2.14683
-2.16929
-2.05698
-1.82627
-1.6285
-1.46004
-1.59066
-1.92601
-2.39983
-3.06034
-2.02786
-1.57011
-1.04537
-0.693945
-0.584364
-0.559412
-0.70739
-0.963262
-1.3026
-1.51093
-1.77555
-1.69161
-1.63913
-1.48015
-1.2841
-1.17691
-1.34183
-1.49871
-1.93459
-2.43057
-1.46419
-1.08935
-0.768886
-0.588919
-0.462426
-0.401658
-0.567138
-0.765461
-0.901041
-1.06784
-1.24612
-1.26775
-1.2258
-1.08639
-0.980477
-0.872828
-0.881944
-1.07851
-1.28285
-1.73819
-0.867998
-0.665471
-0.501745
-0.242034
-0.246224
-0.262182
-0.307383
-0.460518
-0.5977
-0.685126
-0.744543
-0.766878
-0.737535
-0.753758
-0.595814
-0.584271
-0.533391
-0.742678
-0.883233
-1.01464
-0.308036
-0.300029
-0.188436
-0.151005
-0.0289146
-0.132208
-0.155491
-0.134436
-0.225953
-0.191769
-0.273783
-0.231575
-0.182555
-0.18393
-0.215281
-0.139985
-0.23613
-0.249157
-0.230786
-0.258656
-3.3686
-2.31595
-1.26271
-0.547919
-0.309893
-0.444313
-0.89595
-1.40192
-2.16537
-2.76518
-3.17043
-3.16056
-3.03029
-2.7101
-2.42865
-2.29416
-2.44883
-2.96548
-3.83416
-4.79688
-3.24747
-2.29011
-1.34915
-0.869
-0.587199
-0.590783
-0.924187
-1.45107
-1.96171
-2.49583
-2.82935
-2.9423
-2.82753
-2.4763
-2.19602
-2.1338
-2.20998
-2.71818
-3.49068
-4.31877
-2.93908
-2.15198
-1.36093
-0.908672
-0.685152
-0.738437
-0.974705
-1.35292
-1.78786
-2.21564
-2.48315
-2.60617
-2.46785
-2.20158
-1.99175
-1.85853
-1.94471
-2.26888
-2.919
-3.72534
-2.57397
-1.95316
-1.28976
-0.836939
-0.729938
-0.685862
-0.883378
-1.19967
-1.49645
-1.8736
-2.12406
-2.12941
-1.9904
-1.85093
-1.67243
-1.51928
-1.72634
-1.99141
-2.55431
-3.07705
-2.06265
-1.61009
-1.11651
-0.657104
-0.576511
-0.554931
-0.781723
-0.981785
-1.32645
-1.54058
-1.67548
-1.70696
-1.60289
-1.50589
-1.27129
-1.18058
-1.39165
-1.56176
-1.9276
-2.38836
-1.49626
-1.17759
-0.870191
-0.529665
-0.583949
-0.498078
-0.620526
-0.663742
-0.980979
-1.09216
-1.20009
-1.2533
-1.16432
-1.04263
-0.887005
-0.86763
-0.884976
-1.13265
-1.47033
-1.79449
-0.945304
-0.807868
-0.499917
-0.385745
-0.310706
-0.26239
-0.327786
-0.488904
-0.591203
-0.666653
-0.706058
-0.778016
-0.744848
-0.675798
-0.592806
-0.562692
-0.605642
-0.684932
-0.898708
-1.10107
-0.316163
-0.266751
-0.20269
-0.152204
-0.0709814
-0.116898
-0.100989
-0.157077
-0.166639
-0.202157
-0.211705
-0.327787
-0.20535
-0.223812
-0.248388
-0.274892
-0.203982
-0.222202
-0.284683
-0.317312
-3.33323
-2.29039
-1.28893
-0.600291
-0.361474
-0.412851
-0.744461
-1.24899
-1.92863
-2.43112
-2.88856
-2.97475
-2.77982
-2.52918
-2.25476
-2.16725
-2.3471
-2.86204
-3.75693
-4.68751
-3.12078
-2.16869
-1.36315
-0.804193
-0.569257
-0.632903
-0.819946
-1.28295
-1.75841
-2.2599
-2.53665
-2.66022
-2.583
-2.30349
-2.15811
-2.01223
-2.17722
-2.62181
-3.40596
-4.22329
-2.88226
-2.12569
-1.3819
-0.896823
-0.678973
-0.710139
-0.865278
-1.26304
-1.59619
-1.92411
-2.21849
-2.31782
-2.26946
-1.95735
-1.81615
-1.79364
-1.94247
-2.33659
-3.00076
-3.63307
-2.53478
-1.88794
-1.28424
-0.831617
-0.675847
-0.665349
-0.765943
-1.0702
-1.3978
-1.73264
-1.87683
-2.00277
-1.86279
-1.70319
-1.53864
-1.50186
-1.65938
-1.93914
-2.43782
-2.98232
-2.07734
-1.48585
-1.05043
-0.768614
-0.603808
-0.523298
-0.67607
-0.880462
-1.15333
-1.30194
-1.52347
-1.53419
-1.41098
-1.37664
-1.19011
-1.1097
-1.32042
-1.51459
-1.96104
-2.36088
-1.51328
-1.18555
-0.753844
-0.586589
-0.468217
-0.465389
-0.535146
-0.61694
-0.816758
-1.05049
-1.10996
-1.15269
-1.09959
-1.01463
-0.914951
-0.827146
-0.905042
-1.11329
-1.44008
-1.7136
-0.92534
-0.718738
-0.522183
-0.404065
-0.255272
-0.295823
-0.321472
-0.430365
-0.519915
-0.640906
-0.756259
-0.722107
-0.680526
-0.547408
-0.50428
-0.592269
-0.550729
-0.727896
-0.822328
-1.02172
-0.364638
-0.209895
-0.151295
-0.160814
-0.074953
-0.0831635
-0.0978002
-0.117652
-0.0747392
-0.200552
-0.274678
-0.190528
-0.206794
-0.184447
-0.189139
-0.218913
-0.20676
-0.24235
-0.300114
-0.273961
-3.11355
-2.07325
-1.11585
-0.450002
-0.154034
-0.151319
-0.452136
-0.918661
-1.47946
-1.92955
-2.29426
-2.48128
-2.2967
-2.04804
-2.01063
-1.87801
-2.12373
-2.67885
-3.56806
-4.46809
-3.00199
-2.12301
-1.22705
-0.692513
-0.405097
-0.348568
-0.58373
-0.944903
-1.41162
-1.87721
-2.07266
-2.16044
-2.08383
-1.95373
-1.74405
-1.75569
-1.98978
-2.45592
-3.0587
-3.95734
-2.67561
-2.03175
-1.29923
-0.755817
-0.464923
-0.488553
-0.650214
-1.00603
-1.30227
-1.64163
-1.89535
-1.95588
-1.82636
-1.71531
-1.55882
-1.52657
-1.70277
-2.1075
-2.74995
-3.42756
-2.42319
-1.75419
-1.20548
-0.732033
-0.548911
-0.510137
-0.664807
-0.878454
-1.16527
-1.4047
-1.5921
-1.63278
-1.54805
-1.47444
-1.34108
-1.30903
-1.48533
-1.87828
-2.24846
-2.82388
-1.9513
-1.48288
-0.968888
-0.632117
-0.485386
-0.497383
-0.548579
-0.732703
-0.936278
-1.16595
-1.25078
-1.29878
-1.22112
-1.16168
-1.11983
-1.04806
-1.20874
-1.43041
-1.78072
-2.19883
-1.3641
-1.13222
-0.694922
-0.544782
-0.442257
-0.32858
-0.451197
-0.563185
-0.679989
-0.810821
-0.964216
-0.93803
-0.8525
-0.876945
-0.67744
-0.796689
-0.854949
-1.09373
-1.26926
-1.63153
-0.885742
-0.623624
-0.468134
-0.282703
-0.309045
-0.250877
-0.252326
-0.366907
-0.382438
-0.527857
-0.517634
-0.621825
-0.554773
-0.574241
-0.453437
-0.523
-0.505649
-0.654103
-0.871378
-0.900383
-0.30905
-0.210351
-0.115477
-0.105615
-0.128796
-0.0906392
-0.132054
-0.0541359
-0.181769
-0.186453
-0.260552
-0.290894
-0.190074
-0.131824
-0.092869
-0.151896
-0.19913
-0.195087
-0.300601
-0.367105
-2.6971
-1.71813
-0.752682
-0.0855873
0.211092
0.244968
0.0567805
-0.355069
-0.828193
-1.17359
-1.60158
-1.64499
-1.70844
-1.50749
-1.39168
-1.39299
-1.68334
-2.22225
-2.99425
-4.01899
-2.68159
-1.77785
-0.943317
-0.421879
-0.113452
-0.0474401
-0.22627
-0.573736
-0.840223
-1.18963
-1.40909
-1.58654
-1.50703
-1.36951
-1.3194
-1.35487
-1.50765
-1.98066
-2.77836
-3.58314
-2.35718
-1.73372
-1.00955
-0.452616
-0.219738
-0.157902
-0.340067
-0.60721
-0.929558
-1.08329
-1.32946
-1.42801
-1.32524
-1.31365
-1.26465
-1.29206
-1.44272
-1.76737
-2.46024
-3.07618
-2.10775
-1.6133
-0.950212
-0.552101
-0.295479
-0.271867
-0.445177
-0.565338
-0.821715
-0.918545
-1.12082
-1.23076
-1.17039
-1.13921
-1.02747
-1.0298
-1.27652
-1.59434
-2.04642
-2.5697
-1.66932
-1.31985
-0.842626
-0.471073
-0.312809
-0.226617
-0.373243
-0.476316
-0.650354
-0.716348
-0.891281
-0.952063
-0.982145
-0.862512
-0.888429
-0.88421
-0.92427
-1.25698
-1.6341
-2.04495
-1.30435
-0.96701
-0.73578
-0.439088
-0.287911
-0.18514
-0.290438
-0.340093
-0.513868
-0.619317
-0.740738
-0.681451
-0.742993
-0.679985
-0.654074
-0.682714
-0.681347
-0.934434
-1.18955
-1.50141
-0.806643
-0.595898
-0.471524
-0.270708
-0.145482
-0.0763731
-0.271252
-0.240347
-0.323843
-0.344486
-0.397513
-0.428319
-0.469119
-0.379014
-0.385676
-0.377203
-0.418293
-0.500618
-0.7916
-0.886403
-0.249683
-0.232596
-0.17505
-0.0947799
-0.0897571
-0.110538
-0.0849358
-0.0586317
-0.050593
-0.140921
-0.126518
-0.107128
-0.156133
-0.187114
-0.16204
-0.146762
-0.0851417
-0.183258
-0.249275
-0.29421
-2.1856
-1.18418
-0.231794
0.430898
0.730641
0.863249
0.681495
0.416847
0.062626
-0.39436
-0.567171
-0.720007
-0.6718
-0.62505
-0.680771
-0.756345
-0.995343
-1.61536
-2.45967
-3.40815
-2.1983
-1.33527
-0.483597
0.108372
0.392748
0.4848
0.313766
0.0712969
-0.119193
-0.474209
-0.700252
-0.732634
-0.71691
-0.746597
-0.699335
-0.740103
-1.02238
-1.57559
-2.2774
-3.04461
-1.98898
-1.3066
-0.566932
-0.118384
0.196275
0.254794
0.225361
-0.0312755
-0.279117
-0.530236
-0.668967
-0.730225
-0.670609
-0.641123
-0.651618
-0.764036
-0.964865
-1.37298
-1.996
-2.62985
-1.7205
-1.25489
-0.618232
-0.197409
0.0709257
0.107062
0.089079
-0.0920512
-0.350105
-0.510909
-0.597034
-0.688313
-0.636848
-0.630655
-0.52887
-0.638857
-0.766397
-1.2086
-1.70571
-2.27927
-1.48548
-1.01837
-0.539719
-0.242664
-0.0700518
0.0318435
-0.0678694
-0.18543
-0.245537
-0.46543
-0.484385
-0.588357
-0.545385
-0.525032
-0.466873
-0.578638
-0.712519
-1.00864
-1.34279
-1.81147
-1.15471
-0.744568
-0.346697
-0.232456
-0.0859996
-0.0153286
-0.111831
-0.0928944
-0.277067
-0.264247
-0.395784
-0.448723
-0.373775
-0.363789
-0.473169
-0.431079
-0.53858
-0.704671
-0.919739
-1.27352
-0.612663
-0.486124
-0.332703
-0.178178
-0.0205261
-0.023594
-0.077035
-0.0924683
-0.0976265
-0.149509
-0.234119
-0.22532
-0.240459
-0.288176
-0.183809
-0.282579
-0.299028
-0.431079
-0.581773
-0.803145
-0.222899
-0.214185
-0.0938736
-0.0441778
-0.0624439
-0.0111329
0.00570665
-0.0065619
-0.0938335
-0.136262
-0.132992
-0.0911744
-0.0406537
-0.0653884
-0.0910052
-0.0491592
-0.119138
-0.115088
-0.204894
-0.246399
-1.46239
-0.499763
0.427781
1.08173
1.46334
1.68646
1.50455
1.2561
0.978253
0.668386
0.452012
0.354728
0.309187
0.262737
0.221736
0.0788281
-0.175434
-0.772601
-1.72462
-2.64062
-1.57675
-0.758679
0.0287006
0.645517
1.06241
1.20534
1.04249
0.967467
0.652755
0.463816
0.279188
0.116575
0.0819183
0.0872163
0.10809
0.0613015
-0.309553
-0.863914
-1.68024
-2.30726
-1.57309
-0.792397
-0.0944167
0.422037
0.694777
0.833351
0.781233
0.715372
0.453009
0.275213
0.225206
0.0264708
-0.00796162
0.0342656
-0.0237661
-0.112753
-0.384242
-0.822068
-1.45504
-2.0579
-1.40176
-0.813918
-0.197808
0.20078
0.46617
0.604788
0.585234
0.416776
0.328816
0.0915418
0.0317378
0.00912264
-0.0448784
-0.0544496
-0.140807
-0.154061
-0.398392
-0.763762
-1.19503
-1.70238
-1.15805
-0.726803
-0.281724
0.0645809
0.345434
0.39703
0.392197
0.265265
0.174573
0.0918807
0.0756597
-0.0851155
-0.150061
-0.0309819
-0.0395714
-0.181387
-0.264494
-0.616512
-0.937602
-1.37879
-0.932405
-0.562412
-0.233094
-0.00968739
0.101926
0.181695
0.211659
0.202838
0.150382
0.0357286
-0.0596022
-0.0753679
-0.100005
-0.021719
-0.110778
-0.165039
-0.203236
-0.45062
-0.805586
-1.00829
-0.529565
-0.25743
-0.211253
-0.0101504
0.111115
0.0993792
0.0715625
0.0382604
0.0794122
0.0806643
-0.0241974
-0.0590779
-0.0471774
-0.0649653
-0.0728671
-0.172055
-0.148475
-0.336088
-0.388164
-0.602199
-0.196002
-0.126711
-0.0395696
-0.0436153
0.0156015
0.0451082
0.00157693
0.0486425
0.0716253
-0.0133525
-0.0425664
-0.0233321
-0.0508474
-0.023814
-0.0336524
-0.0367075
-0.0187905
-0.101233
-0.0992895
-0.145609
-0.647083
0.375555
1.25821
1.92951
2.292
2.45885
2.46576
2.34542
2.11511
1.83452
1.6419
1.44528
1.46274
1.40025
1.33399
1.11417
0.682269
0.0214938
-0.800904
-1.71598
-0.823577
-0.0291945
0.768239
1.3831
1.80641
1.90942
1.95336
1.76716
1.59632
1.39172
1.21072
1.16122
1.13941
1.08375
0.984102
0.748682
0.414545
-0.12597
-0.820345
-1.6401
-0.928913
-0.185454
0.505922
0.981476
1.29124
1.40632
1.49972
1.49268
1.26387
1.09501
0.936713
0.89539
0.856784
0.799037
0.74287
0.603414
0.304405
-0.137576
-0.824253
-1.4558
-0.906059
-0.355301
0.275931
0.614485
1.01605
1.11939
1.10828
1.05285
0.978775
0.776992
0.685025
0.647998
0.487587
0.625316
0.619128
0.42384
0.214244
-0.213364
-0.698184
-1.25909
-0.816375
-0.381366
0.17502
0.456114
0.717055
0.813588
0.807512
0.801517
0.689695
0.548089
0.533717
0.401213
0.41046
0.394334
0.366705
0.375645
0.14809
-0.209908
-0.598683
-0.868009
-0.494129
-0.299336
0.025021
0.283929
0.41354
0.531539
0.510506
0.440091
0.463525
0.385551
0.422054
0.284663
0.255094
0.270995
0.254542
0.164301
-0.0172907
-0.162957
-0.527775
-0.784229
-0.314801
-0.174242
0.0360131
0.133006
0.274763
0.281884
0.269077
0.285333
0.214487
0.247461
0.172238
0.145827
0.18984
0.17489
0.0752091
0.0665575
-0.0552542
-0.188804
-0.31369
-0.415474
-0.219054
-0.134642
-0.0440344
0.0281067
0.0502389
0.043114
0.108508
0.123358
0.0805133
0.120983
0.0121413
0.0977632
0.0451725
0.092721
0.0195918
-0.016321
0.0308161
-0.0779612
-0.111215
-0.157827
0.228187
1.22089
2.11911
2.82929
3.26195
3.46476
3.47652
3.34076
3.23326
3.04971
2.80789
2.72318
2.54973
2.52725
2.32915
2.08895
1.6504
1.03129
0.155378
-0.734407
-0.103675
0.688511
1.54201
2.12924
2.521
2.73839
2.79296
2.75863
2.61889
2.40307
2.21281
2.17691
2.02173
2.061
1.87939
1.74868
1.28515
0.759435
-0.0273731
-0.819731
-0.272492
0.377124
1.0897
1.60311
1.99587
2.18187
2.11385
2.12309
2.01442
1.82315
1.77542
1.77818
1.62654
1.60023
1.47511
1.30064
1.02453
0.504606
-0.101813
-0.727193
-0.289603
0.107975
0.723109
1.22569
1.50467
1.6413
1.69744
1.69864
1.54839
1.5304
1.38233
1.31681
1.2608
1.18026
1.11829
0.997558
0.717835
0.353297
-0.232444
-0.626252
-0.303107
0.0915053
0.456588
0.868526
0.98977
1.11802
1.16505
1.25663
1.15701
1.10475
1.01862
1.02999
0.949024
0.864732
0.856923
0.690427
0.474534
0.256868
-0.17941
-0.615978
-0.273034
0.0290726
0.280135
0.599019
0.695095
0.776006
0.851709
0.839041
0.781897
0.764442
0.61058
0.690138
0.662016
0.630031
0.554699
0.493651
0.333652
0.100602
-0.180779
-0.46071
-0.187508
-0.103774
0.17129
0.223715
0.445613
0.413195
0.504441
0.498437
0.488129
0.416228
0.402054
0.355378
0.387338
0.273541
0.374111
0.347419
0.161355
0.0441776
-0.14872
-0.265097
-0.0901911
0.0315929
0.0328715
0.125914
0.117713
0.18675
0.179937
0.196255
0.115069
0.117926
0.113501
0.101328
0.11293
0.185146
0.0897312
0.0910152
0.0216238
0.0942752
-0.0187635
-0.0886358
1.03768
1.95625
2.93023
3.61259
4.07349
4.17584
4.34392
4.32145
4.15726
3.93631
3.81744
3.66183
3.59253
3.45188
3.19493
3.00336
2.52076
1.7898
1.0147
0.00537558
0.575194
1.35545
2.09685
2.86148
3.15072
3.43836
3.5125
3.45774
3.33134
3.20479
3.1339
2.94134
2.84962
2.78999
2.59105
2.34525
1.98761
1.38594
0.582738
-0.151428
0.188336
0.856735
1.54999
2.10882
2.47708
2.7834
2.70366
2.76611
2.68519
2.54753
2.43491
2.2798
2.23057
2.21065
2.1065
1.8066
1.4684
1.00327
0.415339
-0.325129
-0.0277806
0.54054
1.12685
1.48456
1.89604
2.03215
2.14336
2.06558
2.00571
1.96432
1.86203
1.8094
1.7251
1.74205
1.56791
1.45312
1.13175
0.76143
0.210049
-0.344922
-0.118498
0.367619
0.80335
1.12855
1.40172
1.54804
1.59439
1.55079
1.55581
1.46752
1.32254
1.29212
1.36249
1.24734
1.13287
1.0672
0.858488
0.545871
0.0942512
-0.269909
-0.109546
0.229413
0.521879
0.796056
0.92125
0.962773
1.04937
1.06993
1.09129
1.00228
0.920929
0.910803
0.886115
0.933372
0.772154
0.71018
0.600265
0.366289
0.0686529
-0.272243
-0.0986806
0.0944519
0.295334
0.438924
0.557151
0.612589
0.684855
0.7031
0.634784
0.568803
0.534766