/*--------------------------------*- C++ -*----------------------------------*\
| =========                 |                                                 |
| \\      /  F ield         | OpenFOAM: The Open Source CFD Toolbox           |
|  \\    /   O peration     | Version:  2212                                  |
|   \\  /    A nd           | Website:  www.openfoam.com                      |
|    \\/     M anipulation  |                                                 |
\*---------------------------------------------------------------------------*/
FoamFile
{
    version     2.0;
    format      ascii;
    arch        "LSB;label=32;scalar=64";
    class       volScalarField;
    location    "0";
    object      stateMean;
}
// * * * * * * * * * * * * * * * * * * * * * * * * * * * * * * * * * * * * * //

dimensions      [0 0 0 1 0 0 0];

internalField   nonuniform List<scalar> 
3200
(
344.126
342.802
341.981
341.714
342.05
342.563
343.437
344.104
344.851
345.383
345.642
345.508
345.099
344.492
343.852
343.288
342.931
343.157
343.973
345.178
338.699
337.644
336.816
336.581
336.816
337.388
337.966
338.733
339.256
339.603
339.888
339.744
339.36
338.829
338.271
337.796
337.521
337.689
338.362
339.445
333.065
332.143
331.525
331.302
331.514
331.927
332.418
332.914
333.487
333.811
333.989
333.871
333.638
333.116
332.577
332.12
331.882
332.06
332.662
333.533
327.246
326.498
326.056
325.866
325.932
326.241
326.756
327.075
327.625
327.721
327.927
327.817
327.571
327.246
326.815
326.356
326.228
326.353
326.894
327.452
321.426
320.819
320.439
320.24
320.377
320.601
320.881
321.157
321.459
321.774
321.742
321.741
321.53
321.245
320.912
320.573
320.432
320.575
320.94
321.45
315.332
314.981
314.676
314.587
314.588
314.778
314.939
315.297
315.389
315.548
315.735
315.544
315.409
315.312
314.991
314.805
314.73
314.731
315.097
315.356
309.174
308.94
308.826
308.748
308.825
308.871
309.008
309.246
309.311
309.377
309.415
309.403
309.278
309.176
308.973
308.908
308.886
308.84
309.067
309.254
303.075
303.049
302.962
302.878
303.02
302.934
303.039
303.176
303.107
303.152
303.116
303.129
303.141
303.074
303.015
302.924
302.915
303.022
303.068
303.159
344.354
343.143
342.223
342.052
342.378
343.09
343.93
344.806
345.552
346.096
346.28
346.114
345.788
345.175
344.433
343.77
343.37
343.519
344.308
345.593
338.923
337.895
337.112
336.845
337.13
337.738
338.394
339.116
339.746
340.232
340.445
340.313
339.862
339.399
338.78
338.155
337.844
337.956
338.672
339.645
333.28
332.382
331.735
331.56
331.709
332.219
332.772
333.331
333.909
334.187
334.425
334.279
333.95
333.529
332.917
332.416
332.194
332.27
332.913
333.674
327.404
326.743
326.181
326
326.179
326.588
327.011
327.504
327.959
328.146
328.281
328.196
327.997
327.532
327.114
326.628
326.435
326.54
327.016
327.57
321.505
320.882
320.53
320.403
320.514
320.772
321.111
321.454
321.792
322.015
322.058
321.98
321.71
321.517
321.14
320.879
320.645
320.702
321.125
321.571
315.433
315.004
314.793
314.612
314.666
314.923
315.094
315.367
315.571
315.779
315.845
315.794
315.604
315.394
315.184
314.947
314.784
314.879
315.12
315.426
309.338
309.048
308.912
308.808
308.854
308.947
309.065
309.316
309.385
309.481
309.497
309.479
309.417
309.228
309.201
309.023
308.858
308.955
308.978
309.23
303.172
303.086
303.001
302.943
302.952
302.953
303.114
303.114
303.17
303.157
303.181
303.213
303.146
303.129
303.045
302.968
303.039
303.042
303.124
303.183
344.919
343.71
342.838
342.684
343.161
343.828
344.747
345.675
346.401
347.11
347.222
347.125
346.755
346.017
345.271
344.571
344.073
344.136
344.929
346.037
339.362
338.377
337.714
337.47
337.782
338.343
339.109
339.913
340.558
341.039
341.292
341.199
340.672
340.112
339.501
338.855
338.541
338.508
339.141
340.14
333.672
332.866
332.123
332.047
332.222
332.718
333.29
333.973
334.502
334.992
335.115
335.017
334.642
334.174
333.54
333.058
332.68
332.859
333.371
334.101
327.784
327.104
326.543
326.467
326.565
326.989
327.455
328.02
328.396
328.73
328.861
328.752
328.39
328.046
327.597
327.187
326.924
326.978
327.461
327.988
321.724
321.189
320.76
320.661
320.781
321.1
321.485
321.869
322.145
322.425
322.432
322.45
322.298
321.891
321.509
321.16
320.986
321.061
321.475
321.922
315.634
315.324
314.892
314.829
314.89
315.145
315.384
315.602
315.909
316.065
316.118
316.025
315.923
315.731
315.396
315.157
315.049
315.089
315.276
315.609
309.413
309.169
309.012
308.916
308.994
309.075
309.258
309.383
309.539
309.699
309.676
309.66
309.588
309.498
309.285
309.106
309.024
309.066
309.209
309.44
303.15
302.952
302.983
303.056
302.993
303.05
303.067
303.141
303.237
303.25
303.249
303.16
303.203
303.226
303.084
302.979
302.999
302.999
303.136
303.216
345.741
344.6
343.781
343.655
344.091
344.83
345.745
346.785
347.649
348.204
348.599
348.518
347.967
347.238
346.431
345.624
345.229
345.217
345.858
346.973
340.034
339.094
338.449
338.338
338.645
339.218
340.026
340.892
341.61
342.089
342.318
342.215
341.868
341.18
340.426
339.775
339.334
339.401
339.967
340.916
334.236
333.414
332.933
332.676
332.911
333.442
334.16
334.828
335.447
335.753
336.029
335.901
335.519
334.996
334.411
333.879
333.476
333.564
334.066
334.797
328.243
327.553
327.063
326.993
327.148
327.512
328.081
328.65
329.146
329.483
329.579
329.509
329.197
328.808
328.257
327.773
327.497
327.577
328.006
328.493
322.144
321.546
321.208
321.145
321.207
321.568
321.944
322.321
322.71
323.006
323.1
323.009
322.794
322.377
322.084
321.741
321.508
321.462
321.856
322.239
315.803
315.508
315.203
315.138
315.221
315.473
315.68
316.049
316.374
316.458
316.583
316.444
316.274
316.108
315.819
315.51
315.381
315.406
315.656
315.937
309.571
309.315
309.247
309.092
309.141
309.334
309.547
309.689
309.768
309.944
309.964
309.982
309.795
309.663
309.532
309.323
309.339
309.264
309.384
309.579
303.212
303.093
303.073
303.06
303.183
303.087
303.182
303.267
303.264
303.357
303.353
303.258
303.337
303.257
303.27
303.127
303.152
303.093
303.119
303.198
346.879
345.841
345.011
344.829
345.283
346.053
347.013
348.077
349.053
349.66
350.055
349.861
349.482
348.592
347.755
347.05
346.447
346.495
347.087
348.102
341.017
340.064
339.408
339.238
339.594
340.286
341.132
341.89
342.747
343.297
343.561
343.493
343.045
342.354
341.644
340.877
340.564
340.47
341.033
341.825
335.099
334.187
333.687
333.542
333.822
334.329
335.047
335.774
336.289
336.956
337.041
336.974
336.618
336.034
335.388
334.817
334.399
334.409
334.933
335.628
328.869
328.211
327.719
327.724
327.888
328.274
328.856
329.403
329.886
330.287
330.405
330.349
330.085
329.563
329.043
328.592
328.284
328.277
328.725
329.283
322.647
322.142
321.71
321.609
321.749
322.134
322.455
322.85
323.285
323.625
323.751
323.738
323.38
323.06
322.7
322.329
322.081
322.038
322.371
322.78
316.201
315.86
315.614
315.591
315.615
315.805
316.126
316.456
316.66
316.885
317.002
316.893
316.773
316.51
316.18
315.974
315.82
315.723
316.02
316.245
309.833
309.518
309.349
309.404
309.393
309.564
309.841
309.818
310.001
310.136
310.244
310.18
310.084
309.89
309.72
309.603
309.479
309.496
309.632
309.827
303.304
303.228
303.211
303.076
303.108
303.119
303.205
303.253
303.384
303.378
303.439
303.455
303.386
303.352
303.304
303.206
303.142
303.17
303.27
303.279
348.151
347.041
346.354
346.263
346.636
347.472
348.456
349.487
350.468
351.173
351.62
351.405
351.029
350.213
349.218
348.398
347.916
348.026
348.443
349.514
342.1
341.27
340.633
340.511
340.755
341.454
342.368
343.215
344.04
344.627
344.965
344.82
344.375
343.654
342.932
342.076
341.859
341.779
342.323
343.067
336.056
335.263
334.711
334.52
334.819
335.387
336.053
336.727
337.444
337.912
338.164
338.111
337.766
337.132
336.426
335.929
335.539
335.444
335.959
336.577
329.661
329.052
328.587
328.539
328.692
329.156
329.68
330.235
330.818
331.165
331.295
331.284
330.973
330.415
329.887
329.399
329.181
329.114
329.516
329.992
323.211
322.738
322.35
322.226
322.436
322.765
323.115
323.548
324.067
324.392
324.501
324.413
324.15
323.718
323.309
322.922
322.694
322.766
323.059
323.405
316.637
316.393
316.005
316.046
315.992
316.387
316.636
316.847
317.115
317.371
317.504
317.481
317.347
317.034
316.652
316.438
316.278
316.308
316.47
316.833
310.018
309.75
309.677
309.624
309.729
309.816
309.969
310.176
310.369
310.458
310.461
310.479
310.413
310.244
310.081
309.92
309.857
309.815
309.918
310.141
303.396
303.339
303.286
303.246
303.314
303.298
303.389
303.444
303.502
303.612
303.488
303.553
303.504
303.448
303.37
303.338
303.209
303.223
303.296
303.364
349.641
348.584
347.997
347.742
348.154
348.894
349.963
351.041
352.03
352.819
353.231
353.116
352.621
351.863
350.921
350.048
349.519
349.596
350.186
350.992
343.44
342.596
342.004
341.802
342.09
342.742
343.589
344.549
345.394
346.07
346.342
346.22
345.767
345.212
344.333
343.596
343.199
343.253
343.658
344.413
337.053
336.359
335.855
335.6
335.94
336.417
337.077
337.917
338.577
339.121
339.425
339.285
338.907
338.287
337.634
337.028
336.732
336.652
337.064
337.667
330.483
329.991
329.506
329.379
329.602
330.005
330.494
331.155
331.698
332.148
332.344
332.311
331.845
331.447
330.973
330.425
330.115
330.141
330.424
331.002
323.916
323.446
323.093
323.035
323.188
323.418
323.841
324.299
324.749
325.054
325.21
325.182
324.831
324.579
324.036
323.738
323.478
323.497
323.717
324.164
317.157
316.756
316.592
316.527
316.552
316.775
317.072
317.431
317.683
318.002
318.003
318.004
317.871
317.529
317.238
316.935
316.819
316.868
316.997
317.258
310.37
310.079
310.018
309.868
309.967
310.012
310.353
310.475
310.642
310.799
310.884
310.805
310.721
310.55
310.331
310.211
310.158
310.065
310.247
310.376
303.476
303.375
303.382
303.388
303.4
303.37
303.493
303.534
303.567
303.611
303.678
303.709
303.54
303.574
303.392
303.394
303.386
303.394
303.504
303.405
351.216
350.314
349.719
349.464
349.851
350.607
351.546
352.593
353.596
354.453
354.845
354.788
354.309
353.466
352.585
351.736
351.342
351.352
351.838
352.751
344.878
344.083
343.487
343.322
343.623
344.218
344.944
345.846
346.711
347.506
347.79
347.728
347.29
346.514
345.764
345.039
344.727
344.678
345.152
345.908
338.26
337.513
337.03
336.929
337.128
337.693
338.346
339.104
339.781
340.279
340.589
340.575
340.126
339.539
338.853
338.373
337.959
338.063
338.351
338.983
331.439
330.988
330.551
330.399
330.604
330.946
331.477
332.101
332.644
333.063
333.381
333.265
332.987
332.402
331.965
331.457
331.167
331.129
331.498
331.97
324.574
324.179
323.923
323.76
323.822
324.205
324.615
325.011
325.415
325.735
326.008
325.967
325.753
325.266
324.893
324.554
324.271
324.279
324.554
324.88
317.67
317.352
317.125
317.104
317.137
317.27
317.562
317.971
318.261
318.544
318.592
318.643
318.405
318.005
317.812
317.589
317.374
317.547
317.613
317.873
310.631
310.451
310.303
310.253
310.263
310.393
310.576
310.824
310.978
311.118
311.214
311.18
311.011
310.83
310.627
310.516
310.52
310.456
310.571
310.761
303.536
303.547
303.509
303.438
303.437
303.463
303.61
303.694
303.728
303.691
303.752
303.75
303.674
303.661
303.625
303.506
303.512
303.549
303.536
303.61
352.963
352.031
351.436
351.268
351.611
352.359
353.204
354.187
355.356
356.142
356.582
356.536
356.013
355.196
354.242
353.614
353.209
353.196
353.678
354.44
346.348
345.529
344.99
344.781
345.095
345.63
346.453
347.381
348.174
348.893
349.272
349.118
348.766
348.059
347.3
346.623
346.295
346.3
346.768
347.438
339.546
338.893
338.368
338.252
338.439
338.959
339.586
340.297
341.004
341.543
341.728
341.782
341.369
340.883
340.156
339.603
339.296
339.334
339.675
340.244
332.539
332.056
331.638
331.448
331.534
331.973
332.482
333.077
333.591
334.102
334.333
334.273
333.966
333.403
333.018
332.528
332.197
332.323
332.644
333.048
325.478
325.004
324.738
324.62
324.756
324.992
325.345
325.842
326.26
326.498
326.725
326.719
326.517
326.114
325.647
325.278
325.13
325.182
325.342
325.783
318.23
317.92
317.668
317.668
317.713
317.86
318.207
318.521
318.835
319.055
319.088
319.12
318.893
318.673
318.35
318.126
318.062
318.002
318.175
318.387
311.044
310.759
310.619
310.694
310.631
310.767
310.917
311.132
311.26
311.485
311.458
311.49
311.428
311.273
311.081
310.912
310.836
310.807
310.932
311.091
303.661
303.588
303.541
303.514
303.628
303.659
303.585
303.735
303.761
303.905
303.898
303.897
303.826
303.737
303.779
303.677
303.67
303.6
303.635
303.769
354.783
354.003
353.392
353.176
353.423
353.997
354.935
355.927
356.894
357.765
358.137
358.151
357.686
356.926
356.03
355.426
355.027
355.029
355.526
356.34
347.907
347.182
346.608
346.447
346.639
347.213
347.887
348.73
349.646
350.273
350.583
350.613
350.18
349.632
348.883
348.245
347.923
347.915
348.261
349.056
340.805
340.191
339.735
339.577
339.673
340.162
340.713
341.439
342.164
342.652
343
342.942
342.516
342.064
341.399
340.918
340.622
340.617
341.04
341.58
333.612
333.133
332.724
332.584
332.605
333.052
333.567
334.172
334.565
335.029
335.283
335.221
334.967
334.465
334.077
333.642
333.397
333.405
333.749
334.171
326.212
325.851
325.563
325.426
325.55
325.787
326.126
326.516
326.977
327.278
327.532
327.429
327.249
326.94
326.523
326.234
326.068
326.021
326.309
326.633
318.856
318.49
318.303
318.23
318.333
318.482
318.75
319.013
319.363
319.575
319.694
319.672
319.497
319.331
318.979
318.741
318.68
318.542
318.871
319.041
311.317
311.164
311.142
310.946
311.038
311.109
311.263
311.426
311.59
311.717
311.843
311.829
311.673
311.545
311.462
311.292
311.174
311.223
311.331
311.459
303.923
303.726
303.721
303.714
303.651
303.783
303.822
303.818
303.94
303.967
303.934
303.904
303.936
303.923
303.897
303.803
303.698
303.889
303.785
303.818
356.658
355.872
355.306
355.042
355.3
355.883
356.604
357.639
358.491
359.249
359.706
359.749
359.27
358.671
357.899
357.192
356.85
356.999
357.423
358.19
349.522
348.867
348.298
348.07
348.184
348.777
349.326
350.248
350.909
351.65
351.934
351.891
351.483
350.953
350.332
349.891
349.448
349.564
349.975
350.597
342.157
341.67
341.194
340.934
341.067
341.528
342.074
342.688
343.337
343.846
344.181
344.049
343.819
343.31
342.695
342.25
342.04
342.11
342.473
342.914
334.779
334.182
333.874
333.672
333.821
334.072
334.585
335.092
335.51
336.081
336.225
336.178
335.932
335.513
335.086
334.661
334.521
334.584
334.802
335.265
327.113
326.806
326.48
326.341
326.441
326.616
326.942
327.344
327.788
328.051
328.316
328.177
328.02
327.715
327.341
327.034
326.989
326.934
327.171
327.516
319.407
319.139
318.96
318.932
318.955
319.038
319.33
319.633
319.843
320.049
320.227
320.21
320.094
319.849
319.616
319.366
319.225
319.27
319.333
319.681
311.652
311.513
311.435
311.266
311.36
311.462
311.584
311.8
311.982
312.092
312.152
312.151
312.077
312.031
311.796
311.698
311.557
311.676
311.731
311.799
303.924
303.937
303.854
303.847
303.756
303.887
303.936
303.936
304.043
304.017
304.099
304.049
303.985
303.965
303.97
303.867
303.932
303.915
303.868
303.875
358.554
357.825
357.172
356.876
357.053
357.577
358.376
359.166
360.13
360.835
361.24
361.126
360.794
360.19
359.562
359.037
358.777
358.874
359.343
359.982
351.179
350.496
349.901
349.784
349.861
350.203
350.837
351.61
352.295
352.92
353.253
353.275
352.987
352.389
351.808
351.408
351.125
351.27
351.697
352.251
343.575
343.015
342.515
342.37
342.45
342.79
343.281
343.867
344.449
344.954
345.221
345.267
344.982
344.508
344.044
343.624
343.406
343.423
343.782
344.361
335.877
335.439
335.013
334.811
334.953
335.143
335.548
336.035
336.452
336.893
337.143
337.085
336.825
336.516
336.129
335.742
335.7
335.714
336.04
336.38
328.003
327.69
327.382
327.117
327.23
327.391
327.779
328.112
328.549
328.813
328.947
328.93
328.733
328.503
328.107
327.834
327.852
327.827
328.008
328.328
320.05
319.831
319.655
319.454
319.646
319.691
319.929
320.067
320.451
320.597
320.705
320.723
320.567
320.351
320.08
319.93
319.809
319.918
320.123
320.348
312.097
312.019
311.79
311.759
311.767
311.797
311.932
312.15
312.292
312.389
312.428
312.479
312.406
312.28
312.128
312.019
311.979
311.975
312.11
312.253
304.055
304.026
303.988
303.966
303.912
303.985
303.992
304.067
304.09
304.132
304.142
304.251
304.115
304.115
304.116
304.116
304.018
304.007
304.044
304.056
360.518
359.776
359.144
358.841
358.98
359.387
360.032
360.792
361.653
362.248
362.706
362.699
362.323
361.817
361.229
360.786
360.588
360.717
361.243
361.873
352.789
352.091
351.604
351.379
351.472
351.844
352.303
352.987
353.618
354.202
354.479
354.52
354.287
353.786
353.369
352.915
352.752
352.863
353.328
353.891
344.988
344.443
343.968
343.765
343.825
344.116
344.501
345.087
345.552
345.949
346.243
346.274
346.093
345.593
345.222
344.94
344.81
344.923
345.318
345.739
337.042
336.565
336.18
335.959
336.03
336.232
336.522
336.979
337.415
337.806
337.95
338.02
337.772
337.459
337.106
336.856
336.786
336.835
337.115
337.489
328.955
328.494
328.228
328.126
328.138
328.223
328.522
328.846
329.203
329.396
329.617
329.584
329.377
329.223
328.89
328.644
328.677
328.693
328.969
329.239
320.737
320.503
320.192
320.153
320.16
320.276
320.451
320.618
320.878
321.142
321.202
321.214
321.101
320.931
320.726
320.519
320.471
320.551
320.757
320.938
312.479
312.328
312.204
312.163
312.09
312.202
312.29
312.45
312.576
312.716
312.831
312.778
312.701
312.516
312.41
312.427
312.31
312.41
312.431
312.576
304.239
304.103
304.068
304.104
304.043
304.075
304.111
304.148
304.117
304.25
304.324
304.233
304.237
304.197
304.181
304.187
304.15
304.159
304.193
304.148
362.477
361.714
361.097
360.784
360.833
361.151
361.735
362.431
363.153
363.688
364.052
364.155
363.809
363.331
363.011
362.557
362.458
362.66
363.209
363.831
354.56
353.916
353.314
353.085
353.096
353.319
353.799
354.359
354.966
355.503
355.699
355.714
355.498
355.169
354.714
354.447
354.382
354.543
354.852
355.515
346.383
345.934
345.448
345.164
345.126
345.386
345.754
346.278
346.693
347.094
347.347
347.347
347.098
346.819
346.456
346.188
346.111
346.257
346.652
347.135
338.241
337.729
337.382
337.12
337.144
337.298
337.623
337.974
338.358
338.648
338.835
338.826
338.644
338.432
338.129
337.904
337.873
338.055
338.223
338.642
329.849
329.501
329.144
328.971
328.985
329.148
329.332
329.623
329.901
330.17
330.255
330.264
330.111
329.945
329.771
329.548
329.548
329.605
329.799
330.097
321.318
321.171
320.846
320.813
320.825
320.82
321.036
321.225
321.396
321.555
321.708
321.654
321.515
321.462
321.168
321.18
321.123
321.245
321.308
321.586
312.879
312.668
312.579
312.464
312.559
312.566
312.623
312.784
312.832
312.995
312.985
313.072
312.972
312.945
312.768
312.773
312.687
312.765
312.915
312.893
304.33
304.248
304.176
304.19
304.237
304.22
304.28
304.218
304.356
304.366
304.441
304.465
304.354
304.28
304.222
304.26
304.283
304.256
304.339
304.388
364.412
363.69
363.037
362.692
362.708
362.965
363.407
364.025
364.642
365.063
365.491
365.459
365.378
364.971
364.602
364.312
364.289
364.506
364.966
365.734
356.28
355.593
355.028
354.786
354.748
354.934
355.334
355.86
356.251
356.666
356.885
356.998
356.793
356.478
356.206
355.99
355.872
356.066
356.593
357.181
347.792
347.349
346.852
346.531
346.528
346.679
347.048
347.465
347.894
348.102
348.348
348.392
348.183
348.022
347.786
347.6
347.521
347.609
348.075
348.511
339.341
338.99
338.513
338.308
338.239
338.39
338.716
338.96
339.303
339.445
339.647
339.712
339.565
339.41
339.145
338.974
339.033
339.157
339.423
339.803
330.668
330.43
330.097
329.875
329.863
329.913
330.178
330.377
330.619
330.719
330.894
330.921
330.883
330.668
330.574
330.434
330.328
330.511
330.744
331.044
322.045
321.787
321.658
321.468
321.422
321.416
321.606
321.725
321.947
322.077
322.199
322.114
322.128
321.996
321.885
321.817
321.71
321.856
322.01
322.242
313.273
313.108
313.046
312.909
312.846
312.836
313.082
313.092
313.205
313.24
313.294
313.309
313.321
313.19
313.146
313.078
313.056
313.075
313.304
313.352
304.43
304.428
304.391
304.333
304.349
304.389
304.38
304.368
304.37
304.465
304.451
304.426
304.465
304.482
304.44
304.406
304.323
304.399
304.444
304.474
366.418
365.652
364.986
364.617
364.601
364.731
365.141
365.589
366.072
366.595
366.768
366.855
366.678
366.447
366.275
366.088
366.043
366.369
366.928
367.64
357.977
357.314
356.71
356.372
356.334
356.469
356.838
357.241
357.542
357.955
358.181
358.156
358.029
357.899
357.653
357.467
357.502
357.802
358.256
358.824
349.269
348.753
348.221
347.987
347.882
348.015
348.213
348.604
348.947
349.247
349.386
349.398
349.244
349.079
348.922
348.842
348.834
349.027
349.442
349.91
340.464
340.131
339.664
339.419
339.322
339.443
339.599
339.89
340.225
340.426
340.512
340.563
340.435
340.319
340.079
340.032
339.988
340.255
340.582
341.022
331.659
331.294
330.948
330.788
330.748
330.768
330.975
331.178
331.299
331.549
331.568
331.641
331.538
331.432
331.267
331.257
331.258
331.417
331.619
331.985
322.735
322.398
322.094
322.076
322.025
322.042
322.216
322.258
322.485
322.494
322.626
322.657
322.539
322.468
322.5
322.37
322.383
322.452
322.573
322.854
313.583
313.499
313.402
313.306
313.206
313.262
313.361
313.413
313.444
313.51
313.594
313.571
313.561
313.572
313.422
313.468
313.427
313.5
313.595
313.773
304.572
304.577
304.476
304.446
304.483
304.45
304.448
304.473
304.569
304.615
304.612
304.566
304.507
304.519
304.53
304.47
304.521
304.497
304.568
304.595
368.347
367.602
366.936
366.549
366.426
366.439
366.826
367.239
367.632
368.001
368.217
368.255
368.186
368.068
367.903
367.81
367.806
368.137
368.827
369.526
359.652
359.017
358.455
358.07
357.877
357.94
358.281
358.498
358.912
359.153
359.338
359.448
359.383
359.236
359.037
358.878
359.026
359.348
359.938
360.382
350.792
350.164
349.656
349.336
349.253
349.288
349.491
349.678
350.024
350.246
350.296
350.451
350.401
350.238
350.145
350.061
350.142
350.384
350.827
351.277
341.729
341.263
340.803
340.564
340.454
340.458
340.601
340.868
341.025
341.298
341.358
341.345
341.33
341.24
341.204
341.074
341.163
341.369
341.644
342.029
332.563
332.226
331.901
331.679
331.52
331.578
331.68
331.884
332.027
332.138
332.154
332.287
332.299
332.103
332.015
332.046
332.008
332.236
332.437
332.784
323.391
323.088
322.845
322.711
322.685
322.684
322.723
322.787
322.878
323.012
323.108
323.103
323.09
322.957
322.977
322.952
322.904
323.063
323.332
323.467
314.027
313.794
313.799
313.652
313.583
313.642
313.711
313.778
313.76
313.77
313.875
313.898
313.863
313.848
313.814
313.866
313.79
313.924
313.925
314.099
304.722
304.666
304.596
304.618
304.575
304.562
304.619
304.583
304.568
304.657
304.687
304.663
304.683
304.645
304.641
304.628
304.593
304.657
304.638
304.672
370.252
369.428
368.786
368.358
368.23
368.277
368.455
368.723
369.056
369.389
369.582
369.726
369.605
369.521
369.402
369.408
369.606
370.023
370.605
371.321
361.241
360.615
360.025
359.621
359.401
359.484
359.6
359.915
360.175
360.425
360.606
360.61
360.543
360.469
360.409
360.458
360.589
360.919
361.406
362.057
352.119
351.515
350.999
350.703
350.565
350.607
350.649
350.765
351.069
351.277
351.435
351.438
351.401
351.35
351.27
351.253
351.38
351.643
352.154
352.646
342.837
342.399
341.91
341.719
341.458
341.484
341.606
341.75
341.886
342.12
342.212
342.217
342.315
342.089
341.984
342.05
342.119
342.399
342.742
343.19
333.463
333.115
332.669
332.503
332.351
332.355
332.447
332.523
332.683
332.85
332.864
332.972
332.915
332.861
332.802
332.692
332.811
333.054
333.333
333.515
323.838
323.704
323.459
323.282
323.23
323.184
323.267
323.388
323.398
323.494
323.458
323.577
323.573
323.507
323.461
323.48
323.583
323.647
323.933
324.128
314.343
314.238
314.076
314.028
313.933
313.969
314.019
314.033
314.125
314.102
314.177
314.193
314.128
314.113
314.176
314.141
314.216
314.301
314.378
314.443
304.922
304.85
304.775
304.72
304.713
304.735
304.681
304.677
304.726
304.69
304.799
304.709
304.755
304.697
304.758
304.779
304.717
304.809
304.826
304.861
371.986
371.178
370.501
370.016
369.796
369.788
369.944
370.214
370.415
370.645
370.887
370.925
371.005
370.894
370.924
370.969
371.195
371.589
372.244
372.948
362.741
362.104
361.442
361.05
360.844
360.796
360.887
361.038
361.258
361.516
361.706
361.7
361.775
361.619
361.655
361.616
361.894
362.225
362.82
363.457
353.309
352.79
352.239
351.891
351.655
351.613
351.805
351.895
352.072
352.298
352.346
352.308
352.391
352.319
352.32
352.35
352.469
352.824
353.269
353.764
343.711
343.418
342.935
342.567
342.417
342.399
342.445
342.524
342.731
342.778
342.926
342.962
342.962
342.962
342.922
342.924
343.075
343.305
343.758
344.047
334.096
333.781
333.519
333.212
333.192
333.156
333.188
333.159
333.303
333.377
333.463
333.43
333.467
333.488
333.417
333.492
333.606
333.719
334.052
334.409
324.429
324.184
324.006
323.762
323.738
323.723
323.704
323.762
323.85
323.884
324.037
323.942
323.939
323.926
323.944
323.939
324.027
324.185
324.394
324.617
314.7
314.65
314.419
314.411
314.233
314.305
314.248
314.281
314.31
314.392
314.406
314.443
314.392
314.478
314.344
314.332
314.474
314.546
314.695
314.777
304.955
304.844
304.858
304.78
304.803
304.747
304.765
304.759
304.846
304.846
304.85
304.86
304.842
304.76
304.844
304.83
304.884
304.797
304.895
304.954
373.216
372.471
371.706
371.233
370.973
371.052
371.04
371.187
371.437
371.702
371.821
371.932
371.915
371.932
372.033
372.043
372.325
372.846
373.412
374.249
363.731
363.099
362.537
361.956
361.841
361.712
361.775
361.937
362.139
362.304
362.375
362.529
362.545
362.497
362.559
362.647
362.829
363.248
363.871
364.457
354.196
353.65
353.11
352.706
352.487
352.315
352.51
352.541
352.686
352.855
352.968
353.091
353.076
353.003
352.992
353.157
353.347
353.657
354.092
354.709
344.509
344.039
343.578
343.348
343.059
343.034
343.018
343.171
343.284
343.353
343.455
343.481
343.512
343.419
343.498
343.502
343.701
343.944
344.37
344.826
334.711
334.301
333.963
333.737
333.559
333.5
333.528
333.63
333.666
333.775
333.92
333.93
333.819
333.875
333.915
333.894
334.008
334.22
334.575
334.863
324.824
324.539
324.316
324.113
324.056
324.076
324.044
324.065
324.073
324.178
324.259
324.253
324.249
324.16
324.267
324.267
324.309
324.472
324.699
324.986
314.942
314.781
314.622
314.521
314.444
314.425
314.385
314.393
314.478
314.553
314.587
314.592
314.53
314.595
314.561
314.618
314.691
314.715
314.826
314.929
305.008
304.93
304.897
304.779
304.849
304.848
304.853
304.823
304.85
304.861
304.861
304.918
304.887
304.829
304.851
304.836
304.963
304.981
304.998
304.97
)
;

boundaryField
{
    hotSide
    {
        type            fixedGradient;
        gradient        nonuniform List<scalar> 
400
(
321.511
322.87
325.591
329.677
335.133
341.965
350.181
359.788
370.794
383.208
397.037
412.289
428.971
447.088
466.647
487.651
510.105
534.011
559.372
586.191
323.738
325.08
327.767
331.802
337.194
343.949
352.078
361.591
372.498
384.81
398.537
413.687
430.268
448.289
467.755
488.672
511.043
534.872
560.161
586.913
326.149
327.47
330.116
334.091
339.406
346.071
354.099
363.503
374.296
386.491
400.101
415.136
431.606
449.52
468.885
489.706
511.988
535.735
560.948
587.63
328.704
330
332.597
336.503
341.73
348.292
356.205
365.485
376.15
388.215
401.695
416.604
432.954
450.753
470.009
490.73
512.919
536.579
561.714
588.325
331.33
332.599
335.142
338.97
344.099
350.546
358.332
367.477
378.003
389.928
403.271
418.047
434.27
451.949
471.095
491.712
513.807
537.382
562.439
588.978
333.918
335.158
337.643
341.389
346.414
352.74
360.392
369.397
379.779
391.562
404.765
419.407
435.503
453.065
472.101
492.618
514.622
538.114
563.096
589.569
336.321
337.531
339.959
343.622
348.544
354.751
362.274
371.142
381.385
393.031
406.101
420.618
436.595
454.047
472.983
493.409
515.33
538.747
563.663
590.076
338.36
339.543
341.92
345.509
350.339
356.44
363.847
372.595
382.718
394.244
407.2
421.608
437.485
454.844
473.695
494.045
515.897
539.253
564.114
590.478
339.852
341.015
343.352
346.885
351.645
357.665
364.985
373.643
383.675
395.113
407.984
422.312
438.116
455.407
474.197
494.491
516.294
539.606
564.428
590.758
340.643
341.795
344.11
347.613
352.334
358.311
365.584
374.193
384.176
395.567
408.393
422.679
438.443
455.699
474.456
494.722
516.498
539.788
564.589
590.901
340.643
341.795
344.11
347.613
352.334
358.311
365.584
374.193
384.176
395.567
408.393
422.679
438.443
455.699
474.456
494.722
516.498
539.788
564.589
590.901
339.852
341.015
343.352
346.885
351.645
357.665
364.985
373.643
383.675
395.113
407.984
422.312
438.116
455.407
474.197
494.491
516.294
539.606
564.428
590.758
338.36
339.543
341.92
345.509
350.339
356.44
363.847
372.595
382.718
394.244
407.2
421.608
437.485
454.844
473.695
494.045
515.897
539.253
564.114
590.478
336.321
337.531
339.959
343.622
348.544
354.751
362.274
371.142
381.385
393.031
406.101
420.618
436.595
454.047
472.983
493.409
515.33
538.747
563.663
590.076
333.918
335.158
337.643
341.389
346.414
352.74
360.392
369.397
379.779
391.562
404.765
419.407
435.503
453.065
472.101
492.618
514.622
538.114
563.096
589.569
331.33
332.599
335.142
338.97
344.099
350.546
358.332
367.477
378.003
389.928
403.271
418.047
434.27
451.949
471.095
491.712
513.807
537.382
562.439
588.978
328.704
330
332.597
336.503
341.73
348.292
356.205
365.485
376.15
388.215
401.695
416.604
432.954
450.753
470.009
490.73
512.919
536.579
561.714
588.325
326.149
327.47
330.116
334.091
339.406
346.071
354.099
363.503
374.296
386.491
400.101
415.136
431.606
449.52
468.885
489.706
511.988
535.735
560.948
587.63
323.738
325.08
327.767
331.802
337.194
343.949
352.078
361.591
372.498
384.81
398.537
413.687
430.268
448.289
467.755
488.672
511.043
534.872
560.161
586.913
321.511
322.87
325.591
329.677
335.133
341.965
350.181
359.788
370.794
383.208
397.037
412.289
428.971
447.088
466.647
487.651
510.105
534.011
559.372
586.191
)
;
    }
    coldSide
    {
        type            mixed;
        refValue        uniform 300;
        refGradient     uniform 0;
        valueFraction   uniform 0.991591;
        source          uniform 0;
        value           nonuniform List<scalar> 
400
(
300.026
300.027
300.026
300.027
300.028
300.029
300.029
300.03
300.031
300.033
300.033
300.034
300.036
300.036
300.037
300.038
300.04
300.041
300.042
300.042
300.026
300.026
300.025
300.026
300.027
300.028
300.028
300.03
300.03
300.031
300.033
300.034
300.035
300.036
300.037
300.038
300.039