/*--------------------------------*- C++ -*----------------------------------*\
| =========                 |                                                 |
| \\      /  F ield         | OpenFOAM: The Open Source CFD Toolbox           |
|  \\    /   O peration     | Version:  2212                                  |
|   \\  /    A nd           | Website:  www.openfoam.com                      |
|    \\/     M anipulation  |                                                 |
\*---------------------------------------------------------------------------*/
FoamFile
{
    version     2.0;
    format      ascii;
    arch        "LSB;label=32;scalar=64";
    class       volScalarField;
    location    "./ITHACAoutput/true/5.9";
    object      error;
}
// * * * * * * * * * * * * * * * * * * * * * * * * * * * * * * * * * * * * * //

dimensions      [0 0 0 1 0 0 0];

internalField   nonuniform List<scalar> 
3200
(
0.490811
0.184736
0.13943
0.107076
0.368605
0.71244
1.12975
1.53304
1.90936
2.21246
2.36436
2.47581
2.27512
2.05122
2.00022
1.92335
1.92745
2.13169
2.4192
2.72961
0.315567
0.192343
0.00352397
0.0315841
0.219257
0.54984
0.903259
1.26646
1.67666
1.82456
2.06696
2.06826
1.94509
1.85103
1.68479
1.568
1.63807
1.78773
2.1398
2.39447
0.247121
0.0946889
-0.00767785
0.0245521
0.194808
0.464932
0.72971
1.05535
1.35799
1.61029
1.63855
1.74084
1.66546
1.54277
1.40263
1.33494
1.35726
1.51546
1.80941
1.9904
0.12667
0.0277689
-0.012193
-0.0219881
0.161638
0.338579
0.60755
0.846942
1.04373
1.23477
1.35889
1.41174
1.34759
1.2641
1.14041
1.05297
1.14401
1.31992
1.45704
1.65847
0.0309337
-0.00129055
-0.0857865
-0.0333015
0.0524272
0.192078
0.494617
0.604722
0.858323
0.936244
1.07435
1.08109
1.04027
0.977052
0.913939
0.840263
0.927523
0.969102
1.1165
1.28483
0.138642
-0.0527128
-0.0140915
-0.000647547
0.0183901
0.143365
0.319979
0.380147
0.629545
0.639379
0.733435
0.75208
0.783951
0.69911
0.688759
0.606798
0.558934
0.638886
0.861461
0.893883
0.0703264
0.033526
-0.046153
-0.0487389
0.0437239
0.13658
0.140812
0.241418
0.3551
0.39496
0.422
0.463383
0.428931
0.458764
0.33811
0.395819
0.425278
0.432737
0.452861
0.522528
0.109732
0.0186295
0.0512178
-0.00429357
0.0505124
0.0101916
0.0730521
0.0552773
0.17295
0.155122
0.212973
0.187225
0.193521
0.121027
0.108229
0.133163
0.1406
0.0687726
0.138059
0.149416
-0.339237
-0.666869
-0.822252
-0.738035
-0.635735
-0.343769
0.0496722
0.489581
0.924164
1.21225
1.352
1.39522
1.30289
1.09272
1.00681
0.948627
1.00529
1.21373
1.587
1.90228
-0.302425
-0.512125
-0.682749
-0.669306
-0.564494
-0.302792
0.0781156
0.494777
0.772363
0.987738
1.19836
1.26849
1.12728
1.10731
0.889236
0.844284
0.961094
1.04602
1.34535
1.70745
-0.317695
-0.505094
-0.573972
-0.574787
-0.467899
-0.266172
0.0427976
0.389154
0.647238
0.955788
1.05126
1.05389
0.96415
0.899872
0.855183
0.731382
0.807374
0.938028
1.17383
1.48
-0.214855
-0.433013
-0.429924
-0.44837
-0.403242
-0.218695
0.101337
0.37111
0.543806
0.730813
0.887495
0.817949
0.847584
0.70264
0.608289
0.680906
0.732504
0.856228
1.03707
1.14197
-0.232388
-0.328594
-0.414981
-0.385368
-0.272761
-0.223024
0.0819092
0.269436
0.497814
0.577422
0.689583
0.632999
0.626628
0.544806
0.57069
0.483451
0.556124
0.682626
0.791664
0.909622
-0.133323
-0.260822
-0.272964
-0.273833
-0.18348
-0.123343
0.0171189
0.134257
0.260269
0.440384
0.499334
0.476464
0.476863
0.444181
0.382742
0.407897
0.446229
0.492289
0.564828
0.652695
-0.0556117
-0.125449
-0.10887
-0.121521
-0.119428
-0.0691872
0.0761034
0.068153
0.213691
0.193985
0.271762
0.320516
0.260601
0.286243
0.175209
0.196257
0.232372
0.264124
0.294513
0.45523
-0.014521
-0.0641001
-0.0806992
-0.0878434
-0.0557389
0.0563245
-0.00106393
0.0164324
0.169027
0.0436404
0.149814
0.0732295
0.0837292
0.0827763
0.0982406
0.0291919
0.086925
0.0918433
0.0942095
0.233991
-1.3394
-1.65955
-1.85719
-1.86798
-1.73758
-1.51385
-1.10002
-0.731522
-0.409528
-0.196322
0.00331598
0.0314084
0.0258644
-0.0636867
-0.204318
-0.170841
-0.143974
0.21165
0.543123
0.981978
-1.11134
-1.36981
-1.58508
-1.61944
-1.51911
-1.25265
-0.939624
-0.593994
-0.293131
-0.0460311
0.0440272
0.138393
0.0723747
0.0106009
-0.0866174
-0.121504
-0.0627887
0.218615
0.565648
0.903546
-0.941332
-1.17059
-1.26483
-1.35251
-1.18155
-1.0655
-0.718947
-0.418037
-0.326107
0.06088
0.0829246
0.0986964
0.0414623
0.023571
0.0513167
-0.0376497
0.0393587
0.19855
0.484367
0.725663
-0.824479
-0.977104
-1.07531
-0.996523
-1.04288
-0.880261
-0.632096
-0.344541
-0.189324
-0.0558509
0.0964752
0.199815
0.144896
0.0432121
-0.0299748
0.000567841
0.0985438
0.263139
0.463678
0.678736
-0.633104
-0.727846
-0.834169
-0.822359
-0.734705
-0.634499
-0.506468
-0.239604
-0.118575
0.0179337
0.0179276
0.117008
0.120147
0.0432314
0.0706312
0.0763663
0.0742453
0.262111
0.374371
0.598021
-0.450994
-0.541725
-0.594679
-0.557118
-0.556898
-0.436594
-0.286682
-0.264769
-0.118278
-0.0134967
0.0106919
0.122638
0.0690293
0.0692259
0.0526157
0.0628882
0.086645
0.119348
0.210636
0.420294
-0.38584
-0.289139
-0.332289
-0.404106
-0.374359
-0.254484
-0.176971
-0.113798
-0.00470401
-0.00150463
0.0293966
0.0473994
0.0572673
-0.000222509
0.0479951
0.0625925
0.0338896
0.115346
0.137291
0.2555
-0.117779
-0.0923483
-0.130869
-0.0760553
-0.086138
-0.0443639
-0.130467
-0.0528403
0.0404878
0.00246546
0.114736
0.0141101
0.0238911
-0.00695204
-0.0467225
0.00447501
0.0313162
0.0572448
0.0560091
0.116394
-2.19848
-2.51012
-2.7853
-2.94562
-2.85665
-2.69104
-2.30275
-1.98463
-1.66238
-1.42309
-1.16907
-1.19556
-1.21822
-1.27831
-1.30654
-1.29693
-1.15496
-0.817396
-0.416929
0.0975121
-1.89563
-2.19067
-2.41151
-2.58584
-2.4576
-2.26872
-2.00545
-1.72954
-1.39633
-1.11051
-1.02083
-1.00563
-0.976824
-0.999697
-1.07719
-1.04066
-0.942794
-0.636145
-0.211399
0.1233
-1.60597
-1.83001
-1.98172
-2.05376
-1.97512
-1.91109
-1.72717
-1.38056
-1.09121
-0.914208
-0.822166
-0.781728
-0.754069
-0.807776
-0.861202
-0.796814
-0.694772
-0.500451
-0.176175
0.217722
-1.33594
-1.4909
-1.64565
-1.67977
-1.62425
-1.50852
-1.34617
-1.06798
-0.913121
-0.752851
-0.665232
-0.64931
-0.654317
-0.631655
-0.631573
-0.646739
-0.49847
-0.367678
-0.0748825
0.193728
-1.07908
-1.1374
-1.24006
-1.29308
-1.24411
-1.18528
-1.03798
-0.806371
-0.626246
-0.528131
-0.442119
-0.43936
-0.50082
-0.461207
-0.447516
-0.425477
-0.369624
-0.188285
-0.0798866
0.119791
-0.700645
-0.810417
-0.86521
-0.963523
-0.918849
-0.796331
-0.693286
-0.660407
-0.514949
-0.379605
-0.304793
-0.311069
-0.285394
-0.353083
-0.360872
-0.350856
-0.249011
-0.150504
0.00751552
0.172097
-0.442881
-0.512039
-0.554111
-0.557171
-0.56854
-0.485434
-0.383358
-0.360923
-0.33809
-0.245701
-0.116334
-0.188486
-0.173304
-0.220599
-0.16283
-0.296154
-0.176207
-0.144396
0.0132917
0.0737239
-0.13187
-0.238725
-0.213873
-0.183448
-0.189684
-0.106903
-0.147627
-0.129529
-0.0433375
-0.0997424
-0.0221602
-0.0665256
-0.0797143
-0.0778248
-0.0789548
-0.00948908
-0.0863763
0.0468826
0.0375113
-0.0331346
-2.97072
-3.36902
-3.70435
-3.7791
-3.79059
-3.70613
-3.36069
-3.15558
-2.80638
-2.59569
-2.36786
-2.45645
-2.36318
-2.37603
-2.30751
-2.3023
-2.06776
-1.71193
-1.22657
-0.553287
-2.51158
-2.91655
-3.14484
-3.2685
-3.32152
-3.16362
-2.88871
-2.65956
-2.3933
-2.23223
-2.04734
-1.97975
-1.95517
-1.94742
-2.00438
-1.86381
-1.66866
-1.3944
-0.935948
-0.399845
-2.21992
-2.39667
-2.65198
-2.78358
-2.69913
-2.62047
-2.38228
-2.18845
-1.97907
-1.77096
-1.67862
-1.59549
-1.63835
-1.56443
-1.61441
-1.5305
-1.34411
-1.13457
-0.759901
-0.328842
-1.73154
-1.97868
-2.13949
-2.27423
-2.20964
-2.0917
-1.94743
-1.80043
-1.59416
-1.39429
-1.40004
-1.29251
-1.24088
-1.2821
-1.26433
-1.24974
-1.11035
-0.853909
-0.567383
-0.273645
-1.34955
-1.50218
-1.70488
-1.70733
-1.70348
-1.60049
-1.49264
-1.3068
-1.15392
-1.07541
-1.06095
-0.899359
-1.0128
-0.984941
-0.862532
-0.912518
-0.729028
-0.660533
-0.327712
-0.138917
-0.963267
-1.09819
-1.18711
-1.16451
-1.22663
-1.14116
-1.12505
-0.969633
-0.902377
-0.74366
-0.663229
-0.714225
-0.705082
-0.6061
-0.687374
-0.661692
-0.484962
-0.389479
-0.240567
-0.120537
-0.561308
-0.667729
-0.738536
-0.794631
-0.703203
-0.70932
-0.538188
-0.529853
-0.484439
-0.440865
-0.396023
-0.414787
-0.432569
-0.350185
-0.423701
-0.430491
-0.324301
-0.204028
-0.151897
0.0162075
-0.252296
-0.137282
-0.200932
-0.306766
-0.187408
-0.223008
-0.210267
-0.184301
-0.134431
-0.154369
-0.0901639
-0.147092
-0.210288
-0.129127
-0.133935
-0.205146
-0.0359611
-0.0435693
-0.0731379
0.02906
-3.53157
-3.97086
-4.27695
-4.5694
-4.60963
-4.49644
-4.3461
-4.10378
-3.85399
-3.61507
-3.48281
-3.32978
-3.30213
-3.36651
-3.1801
-3.03663
-2.76173
-2.34465
-1.80148
-1.1464
-2.94079
-3.41877
-3.73623
-3.8876
-3.92945
-3.84881
-3.64762
-3.39005
-3.30871
-2.99752
-2.90029
-2.83408
-2.77483
-2.75799
-2.65109
-2.52056
-2.35596
-1.91371
-1.39247
-0.908085
-2.51492
-2.80125
-3.13425
-3.27085
-3.32168
-3.26297
-3.08431
-2.94315
-2.75142
-2.52132
-2.48108
-2.34602
-2.26815
-2.33387
-2.20829
-2.04088
-1.88906
-1.55969
-1.12724
-0.73818
-2.08993
-2.3863
-2.53807
-2.62138
-2.6864
-2.62868
-2.4984
-2.3444
-2.13798
-2.00305
-1.9462
-1.90159
-1.85313
-1.86083
-1.78105
-1.59586
-1.48218
-1.2437
-0.878742
-0.527791
-1.61078
-1.77529
-1.96322
-2.08627
-2.00302
-2.01209
-1.9403
-1.85014
-1.65573
-1.60566
-1.46359
-1.36719
-1.4023
-1.36874
-1.34116
-1.19629
-1.12862
-0.917228
-0.637755
-0.44757
-1.16334
-1.31697
-1.37796
-1.48129
-1.44082
-1.49328
-1.37708
-1.25128
-1.2124
-1.16533
-0.999825
-1.00426
-0.952306
-0.923736
-0.974546
-0.892776
-0.799886
-0.62899
-0.387094
-0.303174
-0.692182
-0.833771
-0.796346
-0.871644
-0.870584
-0.899159
-0.85743
-0.822809
-0.709464
-0.625626
-0.639153
-0.590396
-0.629898
-0.507194
-0.577293
-0.498897
-0.512631
-0.393805
-0.260864
-0.213958
-0.275766
-0.35693
-0.228996
-0.307967
-0.294948
-0.320599
-0.243465
-0.296184
-0.281096
-0.216237
-0.206181
-0.202769
-0.207564
-0.193986
-0.164579
-0.144185
-0.130565
-0.13429
-0.121399
-0.0221832
-3.79916
-4.25307
-4.72488
-5.01292
-5.09739
-5.14102
-5.14196
-4.8745
-4.58767
-4.40016
-4.24971
-4.15186
-4.12509
-3.99541
-3.84112
-3.52374
-3.24583
-2.68676
-2.12286
-1.41495
-3.26659
-3.65053
-4.09879
-4.36405
-4.30868
-4.38278
-4.31323
-4.10116
-3.96725
-3.73887
-3.59245
-3.51738
-3.50266
-3.3861
-3.22168
-3.06978
-2.67511
-2.2302
-1.76574
-1.12629
-2.70095
-3.0938
-3.43303
-3.61634
-3.73345
-3.68675
-3.59655
-3.42798
-3.3262
-3.14518
-3.00102
-2.93622
-2.82484
-2.80651
-2.68598
-2.48077
-2.20614
-1.82502
-1.41066
-0.883803
-2.14074
-2.53082
-2.76487
-2.92601
-3.03226
-2.98594
-2.92385
-2.74288
-2.61274
-2.50178
-2.49271
-2.33859
-2.21939
-2.18619
-2.11293
-1.99083
-1.81918
-1.41
-1.05208
-0.73603
-1.8073
-1.89957
-2.08562
-2.25697
-2.3335
-2.27441
-2.28291
-2.19978
-2.07799
-1.96468
-1.87064
-1.82587
-1.79017
-1.6959
-1.59845
-1.48276
-1.37469
-1.05673
-0.744595
-0.54737
-1.25079
-1.38283
-1.55243
-1.6519
-1.61554
-1.64639
-1.60794
-1.45572
-1.46597
-1.35534
-1.29264
-1.29881
-1.20516
-1.23671
-1.15348
-1.04496
-0.960387
-0.738342
-0.557586
-0.432507
-0.753402
-0.763357
-0.883155
-0.912529
-0.97126
-1.00728
-0.990866
-0.951258
-0.873634
-0.818332
-0.795117
-0.743709
-0.76318
-0.781007
-0.6537
-0.703434
-0.525758
-0.426062
-0.38319
-0.247276
-0.209355
-0.287323
-0.32854
-0.323592
-0.320007
-0.32161
-0.342558
-0.295529
-0.289297
-0.281625
-0.281548
-0.21945
-0.237258
-0.187656
-0.198347
-0.154668
-0.16046
-0.162794
-0.11607
-0.125075
-3.83882
-4.39048
-4.86901
-5.25787
-5.49221
-5.59281
-5.47872
-5.33721
-5.17691
-4.91875
-4.90793
-4.76564
-4.59418
-4.43209
-4.21385
-3.94406
-3.53721
-3.01951
-2.21192
-1.50588
-3.30081
-3.76995
-4.21076
-4.604
-4.72644
-4.71064
-4.68361
-4.55339
-4.43659
-4.26562
-4.10619
-3.98424
-3.90232
-3.78095
-3.62784
-3.33765
-2.85347
-2.472
-1.8529
-1.23105
-2.84033
-3.15083
-3.51553
-3.81171
-3.96615
-3.92156
-3.91264
-3.82854
-3.63537
-3.5781
-3.45357
-3.28817
-3.23096
-3.10542
-2.95035
-2.70131
-2.385
-1.95759
-1.40891
-0.990425
-2.2706
-2.5137
-2.83766
-3.14102
-3.12567
-3.3014
-3.19933
-3.11644
-2.93187
-2.92529
-2.70488
-2.70054
-2.60495
-2.45705
-2.35334
-2.14695
-1.86539
-1.52379
-1.07395
-0.818931
-1.75155
-1.92557
-2.24997
-2.43095
-2.4642
-2.50021
-2.42994
-2.39527
-2.26616
-2.23429
-2.1401
-2.05038
-2.01783
-1.90334
-1.84852
-1.62677
-1.514
-1.18552
-0.837787
-0.493007
-1.18687
-1.4522
-1.53384
-1.72666
-1.80531
-1.77582
-1.7074
-1.71855
-1.62757
-1.56037
-1.53088
-1.36492
-1.39834
-1.30398
-1.32107
-1.20494
-1.04308
-0.806546
-0.59418
-0.421772
-0.747264
-0.823634
-0.948613
-0.978534
-1.00562
-1.08086
-1.11003
-1.10465
-1.02718
-0.911035
-0.85778
-0.855584
-0.873764
-0.778282
-0.708916
-0.716025
-0.628435
-0.458303
-0.351079
-0.162762
-0.291403
-0.286012
-0.252587
-0.383154
-0.379409
-0.373812
-0.33469
-0.347583
-0.311804
-0.270312
-0.222139
-0.233419
-0.30119
-0.289994
-0.347916
-0.129152
-0.231583
-0.0920319
-0.0867536
-0.140686
-3.49424
-4.19136
-4.85441
-5.28662
-5.53762
-5.71875
-5.64052
-5.66986
-5.4806
-5.41913
-5.18875
-5.04505
-4.86552
-4.69041
-4.44154
-3.98089
-3.50124
-2.79437
-2.02405
-1.25006
-3.04598
-3.66463
-4.11932
-4.50415
-4.83047
-4.93724
-4.88485
-4.7926
-4.76469
-4.56686
-4.46814
-4.20288
-4.20519
-3.92528
-3.72075
-3.41581
-2.91998
-2.33632
-1.67731
-1.04701
-2.59928
-3.03358
-3.4309
-3.83495
-4.01613
-4.04255
-4.03441
-3.9367
-3.97192
-3.79521
-3.63899
-3.62826
-3.46657
-3.29342
-3.08022
-2.76683
-2.37983
-1.96156
-1.40289
-0.775047
-2.12265
-2.43112
-2.80078
-3.0483
-3.28976
-3.30607
-3.38342
-3.28664
-3.2059
-3.08726
-2.94789
-2.90933
-2.80723
-2.72387
-2.49543
-2.19603
-1.89832
-1.5035
-1.06015
-0.616994
-1.62438
-1.93947
-2.1367
-2.37437
-2.51133
-2.50047
-2.5873
-2.56274
-2.40054
-2.41454
-2.2919
-2.269
-2.17398
-2.00631
-1.88279
-1.64924
-1.51201
-1.14404
-0.758082
-0.467174
-1.19368
-1.34877
-1.52502
-1.69837
-1.72575
-1.8092
-1.78205
-1.75287
-1.67031
-1.66898
-1.70175
-1.52543
-1.50071
-1.35088
-1.31792
-1.24236
-1.04004
-0.809477
-0.508267
-0.305244
-0.688577
-0.814469
-0.889918
-0.976794
-1.0183
-1.15382
-1.08868
-1.04014
-0.994825
-0.981026
-0.944706
-1.02855
-0.908991
-0.871556
-0.805953
-0.7409
-0.613828
-0.459987
-0.280395
-0.203921
-0.208034
-0.276739
-0.344577
-0.322386
-0.388442
-0.36418
-0.333493
-0.319844
-0.317119
-0.307043
-0.336705
-0.334179
-0.261966
-0.278855
-0.242679
-0.242054
-0.19343
-0.192564
-0.0979677
-0.129385
-3.09487
-3.80316
-4.47482
-4.9853
-5.37223
-5.55036
-5.65552
-5.67542
-5.54579
-5.501
-5.2844
-5.09674
-4.89507
-4.62206
-4.21505
-3.75878
-3.22776
-2.57011
-1.6946
-0.850524
-2.69431
-3.20521
-3.87404
-4.31296
-4.59775
-4.70795
-4.83579
-4.77755
-4.71525
-4.60856
-4.49518
-4.391
-4.13758
-3.95185
-3.66618
-3.17926
-2.69848
-2.02293
-1.28051
-0.606543
-2.30031
-2.76717
-3.21917
-3.5599
-3.82545
-4.04567
-4.0618
-3.99557
-3.96244
-3.8393
-3.68961
-3.50086
-3.40833
-3.19442
-2.95234
-2.62929
-2.1737
-1.61731
-1.01158
-0.51402
-1.81348
-2.2081
-2.55781
-2.91036
-3.09672
-3.22855
-3.27649
-3.25135
-3.16971
-3.05475
-2.99379
-2.91806
-2.74662
-2.60137
-2.36527
-2.08874
-1.82098
-1.32384
-0.844149
-0.351687
-1.41564
-1.6868
-2.04633
-2.22042
-2.35793
-2.50579
-2.50109
-2.49451
-2.48349
-2.36708
-2.31087
-2.19282
-2.10693
-1.96158
-1.84072
-1.63075
-1.29396
-1.0092
-0.654576
-0.200726
-1.04041
-1.21515
-1.41244
-1.63241
-1.72085
-1.76974
-1.80771
-1.77386
-1.73517
-1.65412
-1.69964
-1.5575
-1.49646
-1.41134
-1.23382
-1.16531
-0.88477
-0.725577
-0.404104
-0.17028
-0.577562
-0.739477
-0.814603
-0.986626
-0.980568
-1.07524
-1.09289
-1.01776
-1.05152
-0.983492
-0.942752
-0.995169
-0.931664
-0.869967
-0.807504
-0.693785
-0.573042
-0.410968
-0.261211
-0.117453
-0.161887
-0.231539
-0.350239
-0.306386
-0.320218
-0.3659
-0.413855
-0.30031
-0.31839
-0.351878
-0.360116
-0.402708
-0.329092
-0.279994
-0.279276
-0.192368
-0.223963
-0.154314
-0.116114
-0.0455705
-2.31118
-3.11162
-3.88809
-4.42588
-4.92167
-5.15402
-5.25439
-5.32935
-5.28067
-5.24898
-5.01808
-4.89381
-4.61204
-4.21569
-3.83344
-3.35487
-2.70003
-1.95686
-0.963641
-0.0708335
-2.02982
-2.60452
-3.26198
-3.83889
-4.1887
-4.43989
-4.56078
-4.58794
-4.49934
-4.42551
-4.29348
-4.09343
-3.90285
-3.61995
-3.35252
-2.80692
-2.24281
-1.59828
-0.718844
0.00744827
-1.68812
-2.25779
-2.7666
-3.16915
-3.46844
-3.67732
-3.80449
-3.82915
-3.82161
-3.62369
-3.59717
-3.49594
-3.18208
-3.04912
-2.64428
-2.31614
-1.82507
-1.15253
-0.575465
0.00907576
-1.3775
-1.80289
-2.23696
-2.53548
-2.8788
-2.95369
-3.06556
-3.06867
-3.07672
-2.9367
-2.82929
-2.78646
-2.6346
-2.42947
-2.12454
-1.83871
-1.43053
-0.935251
-0.433129
0.0816248
-1.09993
-1.3174
-1.76502
-2.04277
-2.11144
-2.30903
-2.41488
-2.41234
-2.32558
-2.30495
-2.26233
-2.06475
-2.00697
-1.87959
-1.64997
-1.39699
-1.1235
-0.718647
-0.308758
0.151072
-0.773184
-1.02868
-1.22047
-1.40674
-1.50135
-1.59368
-1.65776
-1.66475
-1.62793
-1.63771
-1.56078
-1.43258
-1.45974
-1.25379
-1.21852
-0.989513
-0.715501
-0.541038
-0.17658
0.0726916
-0.499021
-0.572281
-0.701824
-0.822155
-0.977114
-1.04122
-0.954451
-1.02317
-1.03344
-0.951519
-0.910862
-0.910481
-0.830838
-0.844281
-0.738911
-0.58518
-0.357319
-0.299989
-0.11516
0.0595446
-0.190634
-0.227394
-0.219332
-0.319284
-0.320242
-0.329219
-0.332661
-0.346932
-0.242815
-0.307196
-0.297534
-0.278968
-0.249789
-0.274454
-0.276668
-0.174726
-0.209148
-0.0506945
-0.0134409
-0.0199047
-1.362
-2.18834
-2.92617
-3.59631
-4.08479
-4.49041
-4.57333
-4.73341
-4.80706
-4.67864
-4.5304
-4.30908
-4.03772
-3.68611
-3.21505
-2.67921
-1.83174
-1.05362
-0.0209375
0.898496
-1.11371
-1.81855
-2.52425
-3.06891
-3.45215
-3.80788
-3.94376
-4.08513
-4.01613
-3.95754
-3.86305
-3.69402
-3.46888
-3.12162
-2.60492
-2.14106
-1.52227
-0.816371
0.0922316
0.849662
-0.98349
-1.49699
-2.04613
-2.55692
-2.94448
-3.17933
-3.35994
-3.36179
-3.45479
-3.2871
-3.15974
-3.04821
-2.83359
-2.5597
-2.14326
-1.73648
-1.20097
-0.533032
0.0730477
0.817617
-0.755577
-1.17555
-1.69699
-2.08327
-2.33484
-2.56794
-2.63921
-2.70689
-2.73721
-2.60026
-2.66048
-2.46818
-2.27008
-2.09111
-1.71186
-1.3778
-0.93503
-0.39368
0.203297
0.754868
-0.576222
-0.942138
-1.2826
-1.5458
-1.76799
-1.9851
-2.00411
-2.10508
-2.15005
-1.94788
-1.96014
-1.87557
-1.72381
-1.55482
-1.32791
-1.06758
-0.703502
-0.344449
0.147549
0.552655
-0.335032
-0.739702
-0.908201
-1.17537
-1.24668
-1.40832
-1.41217
-1.48799
-1.47011
-1.36932
-1.32789
-1.32191
-1.24746
-1.07903
-0.951072
-0.706932
-0.47323
-0.238156
0.170179
0.367776
-0.231237
-0.465068
-0.527367
-0.636944
-0.78324
-0.822161
-0.85798
-0.865648
-0.925325
-0.893163
-0.821595
-0.778463
-0.772538
-0.621904
-0.591713
-0.376144
-0.32967
-0.155985
0.12703
0.266338
-0.0724537
-0.118334
-0.207298
-0.14832
-0.254386
-0.338545
-0.279504
-0.332952
-0.24215
-0.29909
-0.238392
-0.254017
-0.238639
-0.166829
-0.169544
-0.136416
-0.110597
-0.104259
-0.0339239
0.037718
-0.0459094
-0.886198
-1.7351
-2.4809
-3.07738
-3.48937
-3.66804
-3.85209
-3.87582
-3.88822
-3.7149
-3.41208
-3.17639
-2.74096
-2.25728
-1.55412
-0.805406
0.172488
1.20609
2.25032
0.0211687
-0.742775
-1.43481
-2.06339
-2.59646
-2.94575
-3.14604
-3.33094
-3.26618
-3.24592
-3.08494
-2.99362
-2.59523
-2.28929
-1.81178
-1.20442
-0.540984
0.258813
1.13552
1.95233
-0.0275827
-0.655225
-1.16763
-1.63537
-2.15462
-2.4566
-2.65176
-2.66706
-2.71775
-2.69155
-2.5698
-2.41706
-2.07219
-1.84481
-1.4984
-0.971186
-0.335706
0.305778
1.07088
1.70287
0.0610014
-0.435523
-1.01751
-1.3517
-1.6891
-1.94868
-2.11311
-2.17916
-2.25102
-2.12891
-2.10153
-1.89809
-1.66568
-1.48925
-1.12225
-0.75479
-0.37627
0.255156
0.930638
1.45539
-0.00755313
-0.354439
-0.670819
-1.08748
-1.2956
-1.57898
-1.62956
-1.66393
-1.63912
-1.66704
-1.59784
-1.51146
-1.25531
-1.12827
-0.83471
-0.524897
-0.1497
0.229509
0.703454
1.09294
0.0529244
-0.227309
-0.531044
-0.82684
-1.00806
-1.06646
-1.18016
-1.17362
-1.18347
-1.20137
-1.06171
-0.964164
-0.877192
-0.798742
-0.581164
-0.345403
-0.134732
0.182395
0.572263
0.887226
-0.038164
-0.166511
-0.304655
-0.470346
-0.574535
-0.566426
-0.723003
-0.683043
-0.712079
-0.639479
-0.663832
-0.628583
-0.527185
-0.507423
-0.370357
-0.132642
-0.0670832
0.0804683
0.396451
0.528916
0.0086116
-0.0281666
-0.120331
-0.0896192
-0.226656
-0.206444
-0.221332
-0.225096
-0.246362
-0.228903
-0.174054
-0.131116
-0.162707
-0.145011
-0.103376
-0.138012
0.0161306
0.0562585
0.10677
0.168156
1.62672
0.758503
-0.242317
-1.06377
-1.75352
-2.10178
-2.44788
-2.6191
-2.72381
-2.64247
-2.53757
-2.24363
-1.94528
-1.54566
-0.855581
-0.184273
0.627909
1.58052
2.74545
3.79557
1.40466
0.579531
-0.147046
-0.821986
-1.34856
-1.86553
-2.06634
-2.22567
-2.22008
-2.2055
-2.12704
-1.88543
-1.60629
-1.25061
-0.675031
-0.0290615
0.683941
1.53426
2.45799
3.33016
1.15212
0.56661
-0.14495
-0.713206
-1.13302
-1.51663
-1.62823
-1.82648
-1.80345
-1.86356
-1.64658
-1.54154
-1.27522
-0.987529
-0.5168
0.0771512
0.618854
1.34738
2.1781
2.87426
0.929716
0.430489
-0.0792329
-0.548717
-0.913136
-1.18283
-1.35269
-1.43665
-1.44296
-1.47983
-1.3119
-1.20194
-0.976702
-0.746293
-0.389523
0.106825
0.586397
1.2041
1.8394
2.34538
0.787592
0.404784
-0.0764298
-0.410312
-0.680916
-0.916422
-1.091
-1.06578
-1.15202
-1.1368
-1.07099
-0.881958
-0.795733
-0.503868
-0.329819
0.0536938
0.444893
0.9761
1.43388
1.86281
0.506617
0.256477
0.0407223
-0.301891
-0.454746
-0.701755
-0.711343
-0.772441
-0.776181
-0.720753
-0.659757
-0.694449
-0.550743
-0.348072
-0.12232
0.0983807
0.365436
0.702148
1.0608
1.31234
0.330541
0.189275
-0.0530889
-0.17702
-0.345869
-0.39212
-0.34749
-0.43831
-0.491197
-0.422338
-0.404829
-0.377664
-0.295013
-0.199639
-0.0770428
0.0654287
0.211855
0.458532
0.664126
0.859936
0.103925
0.108525
0.0294067
-0.00628587
-0.0820733
-0.142719
-0.17246
-0.125644
-0.150443
-0.170592
-0.163286
-0.112604
-0.119977
-0.0537795
-0.0502281
0.0414029
0.088872
0.148271
0.147109
0.222335
3.49029
2.62222
1.5268
0.734843
0.0382557
-0.543637
-0.921353
-1.13873
-1.20263
-1.20937
-1.11648
-0.793643
-0.392008
0.0631252
0.710578
1.44636
2.34392
3.45244
4.61213
5.66101
3.03107
2.22734
1.38447
0.65346
0.00482953
-0.357182
-0.68328
-0.869315
-0.972109
-0.920151
-0.855372
-0.555095
-0.272527
0.220223
0.737819
1.38076
2.17291
3.08954
4.05849
4.987
2.54193
1.85177
1.21586
0.574033
0.0466882
-0.296586
-0.479522
-0.661429
-0.653806
-0.694707
-0.675845
-0.406208
-0.155336
0.295155
0.718697
1.27055
1.90977
2.65918
3.51681
4.25521
2.08246
1.52351
1.0451
0.485839
0.135148
-0.175894
-0.416781
-0.510511
-0.586247
-0.513985
-0.510087
-0.350122
-0.15175
0.240123
0.615299
1.0029
1.65112
2.17477
2.92381
3.40502
1.58575
1.21988
0.764585
0.343997
0.098794
-0.219886
-0.30314
-0.371586
-0.425034
-0.436578
-0.353793
-0.11718
0.0343505
0.187737
0.45905
0.864736
1.24225
1.76839
2.27328
2.83327
1.16048
0.905535
0.527075
0.248285
0.0960781
-0.0910387
-0.193746
-0.199244
-0.251152
-0.26105
-0.301147
-0.137843
0.020643
0.144423
0.379597
0.630416
0.87049
1.25529
1.61515
1.91078
0.706821
0.556109
0.30901
0.182571
0.0989791
-0.0479376
-0.128077
-0.108881
-0.116913
-0.126694
-0.13709
-0.0446351
-0.00540524
0.132085
0.24948
0.378865
0.518663
0.902651
1.02144
1.25943
0.305363
0.180631
0.117583
0.118896
-0.00503185
-0.0291039
-0.0419075
-0.131279
-0.0263282
-0.0477314
-0.0658326
0.00588432
0.0674756
0.0384124
0.106392
0.152923
0.161476
0.251611
0.3506
0.425413
5.70975
4.68831
3.63124
2.70894
2.01763
1.42659
0.981555
0.727123
0.532015
0.635919
0.823662
0.967292
1.46376
1.94708
2.6659
3.38654
4.39981
5.46318
6.68847
7.72196
4.94755
4.04412
3.17612
2.42799
1.7626
1.31951
0.951743
0.637484
0.664681
0.616281
0.796882
1.04266
1.34723
1.79236
2.40271
3.06421
3.86729
4.78224
5.86045
6.80743
4.12001
3.51703
2.75725
2.05434
1.47849
1.14038
0.788401
0.701232
0.64335
0.623579
0.687742
0.937358
1.14739
1.6005
2.08005
2.70037
3.36174
4.14339
5.09077
5.88321
3.46917
2.82969
2.28865
1.82213
1.22987
0.930615
0.688735
0.57582
0.451234
0.502106
0.63473
0.77856
1.02355
1.3259
1.75287
2.18527
2.84936
3.43618
4.15313
4.77995
2.61493
2.21806
1.80296
1.34795
1.03247
0.845449
0.592694
0.473415
0.383931
0.473403
0.512809
0.678419
0.824141
1.06508
1.36956
1.72545
2.165
2.69764
3.28243
3.76562
1.93493
1.5278
1.27669
0.95235
0.761204
0.579093
0.427233
0.323831
0.307295
0.339526
0.298793
0.496274
0.59533
0.801795
0.991686
1.26747
1.56629
1.88934
2.38328
2.69486
1.16113
0.933608
0.756369
0.626156
0.409406
0.305851
0.27977
0.158863
0.157925
0.222255
0.130529
0.301827
0.367478
0.492218
0.617306
0.818408
0.922247
1.18834
1.47089
1.55406
0.372852
0.26554
0.230542
0.203063
0.0680237
0.0900679
0.133027
0.0535794
0.0391902
0.0901549
0.0332383
0.115148
0.110449
0.18429
0.181818
0.264053
0.310562
0.421849
0.476181
0.582315
8.12252
7.11454
5.94036
5.05066
4.20344
3.59914
3.15866
2.91493
2.74946
2.78276
2.91241
3.1518
3.57092
4.14727
4.88629
5.63126
6.67718
7.81464
9.04766
10.2334
7.03717
6.19837
5.32488
4.46837
3.74456
3.20229
2.77623
2.57996
2.49188
2.43477
2.62147
2.79738
3.08806
3.6315
4.27957
4.99344
5.88063
6.85952
7.90149
8.86997
5.9404
5.26819
4.47151
3.75948
3.24458
2.72996
2.42993
2.23907
2.14274
2.15348
2.20008
2.47838
2.72744
3.14042
3.71763
4.23077
5.02464
5.88332
6.66207
7.5318
4.86093
4.27348
3.63968
3.126
2.67361
2.29402
2.03849
1.90291
1.76487
1.84076
1.88962
2.0121
2.31859
2.63838
3.00078
3.56306
4.15093
4.8713
5.56425
6.16567
3.73202
3.32216
2.90528
2.42898
2.03226
1.82724
1.60491
1.46691
1.42194
1.42711
1.45689
1.6181
1.73495
2.0518
2.44522
2.86024
3.20924
3.78625
4.33621
4.81085
2.73891
2.35141
2.09233
1.8268
1.43465
1.31861
1.04533
1.06238
0.968017
0.961127
1.09902
1.16587
1.29591
1.43711
1.67374
1.97704
2.37344
2.74944
3.12898
3.49369
1.61513
1.40794
1.36049
1.07003
0.928424
0.758941
0.734617
0.641368
0.592193
0.69259
0.664835
0.725689
0.818388
0.911667
1.03948
1.24575
1.41151
1.65514
1.88106
2.08707
0.545526
0.479252
0.395034
0.391645
0.281869
0.244032
0.218429
0.224292
0.157618
0.213514
0.197764
0.23285
0.267162
0.297319
0.383204
0.450383
0.467735
0.531479
0.675935
0.695339
10.746
9.71691
8.57431
7.54632
6.71221
6.03131
5.65901
5.25471
5.14711
5.10224
5.26439
5.45912
5.93764
6.52737
7.24502
8.08843
9.12648
10.2854
11.5402
12.757
9.26724
8.34002
7.42625
6.60951
5.81671
5.2429
4.83135
4.63407
4.52659
4.47022
4.58687
4.87755
5.22408
5.7409
6.3641
7.01042
7.97422
9.04155
10.1001
11.1185
7.80082
7.13466
6.32508
5.55629
4.93542
4.41066
4.17551
3.89769
3.8114
3.85347
3.9684
4.10446
4.46354
4.90917
5.45012
6.1
6.78823
7.64115
8.59871
9.39275
6.45007
5.80482
5.18376
4.58044
4.0719
3.73703
3.41585
3.26783
3.10118
3.11171
3.20839
3.36266
3.60973
3.9962
4.51641
4.99437
5.65023
6.30804
7.05806
7.74774
5.01051
4.45696
4.07902
3.51752
3.18651
2.84159
2.67321
2.60488
2.45305
2.41946
2.53692
2.6782
2.84507
3.13201
3.52624
3.87021
4.40517
4.92775
5.53066
6.04883
3.58265
3.22102
2.85068
2.5341
2.34837
2.13331
1.89607
1.82264
1.76766
1.75751
1.81017
1.96521
2.08836
2.25794
2.51809
2.81681
3.12916
3.51699
3.93882
4.30516
2.09172
1.93495
1.79298
1.60695
1.37452
1.17553
1.19534
1.09545
1.06476
1.10761
1.11521
1.13098
1.20401
1.40003
1.52652
1.67588
1.85974
2.14571
2.35518
2.5905
0.688305
0.685434
0.575259
0.515546
0.460898
0.379016
0.32759
0.362127
0.349305
0.334462
0.34638
0.347571
0.447145
0.459455
0.552804
0.535864
0.694953
0.723316
0.812746
0.862761
13.3832
12.2745
11.1844
10.0776
9.17806
8.56681
8.05058
7.69579
7.49512
7.51029
7.60361
7.87327
8.33293
8.99372
9.68117
10.6121
11.5858
12.8772
14.2392
15.3474
11.544
10.5591
9.62302
8.76472
7.99284
7.36521
6.93157
6.70201
6.43574
6.4293
6.54545
6.88973
7.26996
7.73433
8.3993
9.1571
10.0944
11.2528
12.2576
13.2959
9.62771
8.92168
8.1589
7.31847
6.78603
6.27238
5.91732
5.61679
5.49479
5.43614
5.60493
5.81018
6.17962
6.55353
7.1126
7.76269
8.62234
9.48735
10.4444
11.2075
7.88344
7.26489
6.61887
5.99796
5.49728
5.06641
4.79953
4.56274
4.49794
4.4991
4.54337
4.80546
5.00123
5.42623
5.82531
6.38991
6.97725
7.7415
8.46821
9.11354
6.13642
5.7104
5.11636
4.63752
4.30971
3.93199
3.75457
3.6049
3.46462
3.41354
3.60469
3.72896
3.90741
4.23427
4.57083
4.95647
5.37576
5.9437
6.69088
7.14415
4.36607
4.08362
3.6715
3.22233
3.02353
2.80934
2.66424
2.50957
2.53031
2.50545
2.59636
2.67502
2.77944
3.02081
3.24012
3.58989
3.94704
4.26401
4.79658
5.08216
2.65226
2.42832
2.12752
1.97637
1.79422
1.62512
1.60099
1.5199
1.53399
1.48319
1.53858
1.6152
1.67133
1.75729
1.94913
2.18059
2.31901
2.6111
2.89818
3.09227
0.784712
0.802411
0.732758
0.629451
0.555561
0.580443
0.529381
0.490215
0.440066
0.490876
0.405307
0.521985
0.571642
0.571152
0.647846
0.740301
0.803226
0.861877
0.889405
1.00706
15.4848
14.3792
13.2088
12.201
11.2568
10.4887
10.0489
9.64872
9.44853
9.49835
9.56048
9.87149
10.3229
10.9216
11.5646
12.5852
13.6996
14.8473
16.1438
17.4613
13.3243
12.3124
11.3888
10.3669
9.61847
9.02592
8.61064
8.22314
8.09932
8.13386
8.1352
8.47835
8.88488
9.29697
10.0289
10.8349
11.7608
12.8559
14.0021
14.9934
10.9975
10.2309
9.52727
8.6979
8.11837
7.56385
7.15954
6.86442
6.79098
6.71623
6.83187
7.07645
7.40191
7.87008
8.48064
9.08339
9.90459
10.7926
11.7615
12.5943
8.97385
8.37271
7.6765
7.06075
6.52832
6.12342
5.84296
5.64967
5.4991
5.44903
5.5697
5.78244
6.01395
6.37781
6.8836
7.44328
8.0587
8.81477
9.57824
10.2227
6.89829
6.46488
5.88821
5.52942
5.02759
4.65644
4.5025
4.26953
4.2155
4.23962
4.33074
4.37106
4.7336
4.97736
5.38585
5.70213
6.29727
6.83367
7.37982
7.97048
4.91611
4.57345
4.2291
3.87838
3.55869
3.37454
3.18036
3.02691
3.02278
3.01156
3.07437
3.18435
3.42006
3.59197
3.75892
4.07808
4.4297
4.87466
5.23807
5.61845
2.94027
2.75841
2.48625
2.32488
2.20024
2.01222
1.91954
1.88878
1.7888
1.77585
1.89183
1.89491
1.95339
2.1025
2.26751
2.48313
2.70013
2.92979
3.1484
3.36823
1.00984
0.892858
0.704869
0.770363
0.775135
0.738995
0.68682
0.620619
0.552276
0.684348
0.660949
0.61124
0.648685
0.759504
0.804866
0.838874
0.855467
0.926104
1.01226
1.12811
)
;

boundaryField
{
    hotSide
    {
        type            calculated;
        value           nonuniform List<scalar> 
400
(
1.73681
0.909206
-0.0860375
-0.937654
-1.69979
-2.24777
-2.49959
-2.52043
-2.1538
-1.72902
-0.916412
0.0653668
1.41785
3.13078
5.03867
7.30656
9.77195
12.4522
15.1507
17.3176
1.47385
0.624341
-0.364088
-1.20818
-2.05822
-2.64867
-2.91678
-3.03719