/*--------------------------------*- C++ -*----------------------------------*\
| =========                 |                                                 |
| \\      /  F ield         | OpenFOAM: The Open Source CFD Toolbox           |
|  \\    /   O peration     | Version:  2212                                  |
|   \\  /    A nd           | Website:  www.openfoam.com                      |
|    \\/     M anipulation  |                                                 |
\*---------------------------------------------------------------------------*/
FoamFile
{
    version     2.0;
    format      ascii;
    arch        "LSB;label=32;scalar=64";
    class       volScalarField;
    location    "0";
    object      relativeErrorField;
}
// * * * * * * * * * * * * * * * * * * * * * * * * * * * * * * * * * * * * * //

dimensions      [0 0 0 1 0 0 0];

internalField   nonuniform List<scalar> 
3200
(
0.0214437
0.0149007
0.00934398
0.00488039
0.00253235
0.000652207
0.000475075
0.000821715
0.00125542
0.00153106
0.0021071
0.00270711
0.00321117
0.00402681
0.00480107
0.00482557
0.00382527
0.00122844
0.00307547
0.0086964
0.0183659
0.0129812
0.00798114
0.00430097
0.00193232
0.000525994
0.000225101
0.000823615
0.00104635
0.00148043
0.0018581
0.00229839
0.00297014
0.0036386
0.00422717
0.00450973
0.00354728
0.00127048
0.0026872
0.00709256
0.0157707
0.0112749
0.00697904
0.00362878
0.00154433
0.000696862
0.00051033
0.00086787
0.00107311
0.00122352
0.00148814
0.00184703
0.00240414
0.00325602
0.00371056
0.00373309
0.00304628
0.00123419
0.00202869
0.00584419
0.0128538
0.0092606
0.00561305
0.00286991
0.00133714
0.000563585
0.000211716
0.000629405
0.000660583
0.000871978
0.00132844
0.00161213
0.00216185
0.0027434
0.00279886
0.00318288
0.00257289
0.00108153
0.00168637
0.00470919
0.0102465
0.00735745
0.0043692
0.00242304
0.00123477
2.28943e-05
0.00037554
0.000481866
0.000398212
0.000677743
0.00101113
0.00141458
0.00168901
0.00226231
0.00242397
0.00256393
0.00215868
0.00106913
0.00148559
0.0036121
0.00738681
0.00522969
0.00331682
0.00197221
0.000758563
0.000265971
1.26603e-05
0.000427776
0.000307491
0.000745439
0.000616705
0.00110134
0.00152724
0.00184386
0.00200487
0.00171355
0.0017731
0.000767503
0.000876236
0.00250969
0.00453316
0.00337357
0.00214937
0.000999483
0.000346765
0.000219662
0.000239654
0.000485681
0.000486487
0.000446553
0.000424111
0.000538376
0.000736076
0.000895473
0.000983338
0.000970723
0.000965169
0.000473729
0.000390549
0.00161995
0.00178364
0.00104228
0.000515456
0.00032915
3.88739e-05
9.89889e-05
2.61337e-05
0.000288043
4.90009e-05
3.27829e-05
0.000178722
0.000273136
0.00051718
0.00045826
0.000402189
0.000243756
0.000291766
8.16463e-05
0.000136762
0.000648142
0.0214159
0.0149628
0.00926769
0.0051594
0.00283547
0.00125142
0.000454451
3.96103e-05
0.000320732
0.000286191
0.000872973
0.00136811
0.00217951
0.00302089
0.00393131
0.00439799
0.00379256
0.00092835
0.00340727
0.00872414
0.0186232
0.0131396
0.00822652
0.00461081
0.002453
0.00121442
0.000501081
3.0049e-06
0.0001008
0.00044332
0.000686305
0.00129113
0.00197064
0.00296346
0.00356694
0.00370885
0.00301991
0.00113764
0.00270374
0.00733771
0.0158185
0.0113227
0.00729283
0.0039019
0.0021913
0.000883974
0.000405635
0.000157076
6.72936e-05
0.000379847
0.000522656
0.00104986
0.00192332
0.00244606
0.00335844
0.00334837
0.00265515
0.00109864
0.00225145
0.00578199
0.0129142
0.00899303
0.00568119
0.00327035
0.00165446
0.000648956
0.000329856
0.000259237
0.000226984
0.000131478
0.00053951
0.000768907
0.00152332
0.00190772
0.00258441
0.00260823
0.00246022
0.00096753
0.00174736
0.00502961
0.00997529
0.00747444
0.00468603
0.00248317
0.00109157
0.000621735
8.21081e-05
3.77156e-05
0.000125786
0.00019171
0.000555371
0.000678066
0.0011115
0.00177738
0.00214938
0.00233724
0.00178428
0.000573428
0.00126865
0.00370579
0.00730544
0.00539176
0.00312716
0.00211132
0.00106493
0.000379578
5.24195e-05
9.24532e-05
0.000139631
2.54446e-05
0.000284684
0.000627662
0.000838774
0.00116433
0.00144294
0.00189037
0.00145569
0.000352384
0.000642492
0.0025812
0.00456659
0.00328034
0.00174435
0.00115831
0.000500478
0.000296694
0.00024146
0.000216583
0.000122378
0.000291603
0.000242506
0.000299774
0.000711425
0.000779042
0.00082771
0.00103728
0.000824759
0.000381775
0.000588099
0.00150137
0.00160633
0.00119961
0.000428542
0.000318957
0.000271484
0.000255764
0.000134973
3.48829e-06
0.000248161
0.000258908
0.000212843
4.02542e-05
0.000191334
0.00030806
0.0001516
0.000166768
0.000450727
5.1454e-05
2.7806e-07
0.000617094
0.0215378
0.0155919
0.0100176
0.00578327
0.00350999
0.00260539
0.00201884
0.00161617
0.00159662
0.00154699
0.00123149
0.000615197
0.000248159
0.00154438
0.00256577
0.00304995
0.00254234
0.000250896
0.00400041
0.00926989
0.0185913
0.013484
0.00857225
0.00544291
0.00316065
0.00231783
0.00153712
0.00139965
0.00133403
0.00108509
0.0011884
0.000380608
0.000441235
0.00152809
0.00249738
0.00262005
0.00224588
0.000395301
0.00317235
0.00774573
0.0158726
0.0115098
0.00748987
0.0044233
0.00282876
0.00170964
0.0011703
0.0010695
0.00109939
0.000945116
0.000804841
0.000420017
0.000433807
0.00120686
0.00205399
0.0023108
0.00192625
0.000390511
0.00253604
0.00632005
0.0131554
0.0095893
0.00622729
0.00373607
0.00213681
0.00155007
0.000916441
0.000925821
0.000911413
0.00101515
0.000434773
0.000481988
0.00016367
0.00094675
0.00171041
0.00202519
0.0018481
0.000375177
0.00226077
0.00513648
0.0104725
0.00747856
0.00476916
0.00294231
0.00166728
0.00120563
0.000780401
0.000794174
0.000912695
0.000437123
0.000399617
0.000190724
0.000520142
0.00100684
0.00139075
0.00151588
0.00159466
0.000272636
0.00171662
0.00408579
0.00747727
0.00555166
0.0036272
0.00214738
0.00135771
0.000711614
0.000451758
0.000541962
0.000630213
0.000479419
0.000337779
0.000200278
0.000266047
0.000610066
0.00120734
0.00130344
0.00124193
0.000293424
0.00144632
0.00270151
0.00460236
0.00332297
0.00208507
0.00124733
0.00074043
0.000461236
0.000152954
0.000206929
0.000321827
0.000614166
0.000169104
0.000400209
0.000373304
0.000146244
0.000837248
0.000710886
0.000566237
0.000151262
0.000848339
0.00192813
0.00142716
0.000957266
0.000764277
0.000466211
0.000348347
0.000316921
0.000177129
0.000417257
0.00022371
5.31947e-05
0.00011163
6.42081e-05
9.62628e-05
0.000225726
0.000381235
0.000249912
0.000360462
5.98952e-05
0.000350479
0.00063844
0.0219644
0.0160667
0.0108163
0.00707624
0.00473922
0.00384228
0.00338034
0.00349067
0.00353148
0.00373542
0.00362066
0.00275646
0.00184125
0.000574114
0.000704956
0.00142139
0.0010948
0.000734852
0.00495659
0.00995255
0.0192461
0.0140821
0.00955985
0.00619777
0.00419958
0.00322131
0.00298518
0.002892
0.00335935
0.00315596
0.0030118
0.00232129
0.00151745
0.000340682
0.000865591
0.0014154
0.00126069
0.000778731
0.00417591
0.00875174
0.0162469
0.012398
0.00835588
0.00519914
0.00350951
0.00242154
0.00251486
0.00268066
0.00264627
0.00277331
0.00233762
0.00219674
0.00141179
0.000114823
0.000554508
0.00145289
0.000852654
0.000502933
0.00350373
0.00687538
0.0136015
0.0100185
0.00666188
0.004148
0.00279608
0.00218725
0.00190216
0.00200179
0.00232698
0.00217339
0.00223935
0.00174617
0.0010786
5.57601e-05
0.000639772
0.00110889
0.000890096
0.000532522
0.0028057
0.0055824
0.0106149
0.00806668
0.00531401
0.00323782
0.00208624
0.00172861
0.00156774
0.00178736
0.00162407
0.00188651
0.00168447
0.00134609
0.000707554
0.000211035
0.00073093
0.000873801
0.000661402
0.000132272
0.00197678
0.0043487
0.00779603
0.00562693
0.0038934
0.00277771
0.00170026
0.00106716
0.00132586
0.001333
0.00130381
0.00116612
0.00104589
0.000933316
0.000348944
0.000139539
0.000503254
0.000671113
0.000804326
0.000272749
0.00170782
0.00299837
0.00466371
0.00383325
0.00239634
0.00149472
0.000962981
0.000736373
0.000503742
0.000691036
0.000745761
0.000704575
0.000708656
0.000384016
0.000336988
9.10607e-05
0.000231297
0.000314577
0.000411145
2.27212e-05
0.0010444
0.00202767
0.00185647
0.00119335
0.00103232
0.000615153
0.00028627
2.21604e-05
0.00024166
0.000272613
0.000183728
4.30842e-05
3.49652e-05
8.02593e-05
1.77759e-05
4.97758e-05
2.1175e-05
6.44621e-05
0.000288309
4.75974e-05
0.000484714
0.000527243
0.0231465
0.0173158
0.0120349
0.00836661
0.00632353
0.00540348
0.00513366
0.0053039
0.00564702
0.0060569
0.00601364
0.0050987
0.00419285
0.00264892
0.00110968
0.000609841
0.000713835
0.00259434
0.00623282
0.0112529
0.019993
0.015035
0.0103603
0.0071985
0.00539319
0.00475156
0.00441375
0.00468469
0.00519006
0.00536047
0.00526758
0.00465644
0.00362936
0.00234068
0.00106103
0.000344624
0.000449692
0.00219475
0.00574061
0.00955019
0.016705
0.0128062
0.0089239
0.00610986
0.00462072
0.00390021
0.00372213
0.00400753
0.0042787
0.00480457
0.00419429
0.00394589
0.00299211
0.00183679
0.000790141
0.000242668
0.000384016
0.00167618
0.00441682
0.00771631
0.0140657
0.0108285
0.00758453
0.0052166
0.00399672
0.00330839
0.00338363
0.00331576
0.00343351
0.00372009
0.00370053
0.00311762
0.00249996
0.00147289
0.000662148
5.55536e-05
0.000332669
0.0014124
0.00367189
0.00635165
0.0110399
0.00857405
0.00578822
0.00416385
0.00300096
0.00275632
0.00285864
0.00265623
0.00279251
0.00300848
0.00279268
0.00249292
0.00206375
0.00131123
0.000705321
9.58215e-05
0.000263644
0.000988251
0.00304357
0.00490403
0.00793912
0.00624696
0.00426173
0.00297673
0.00226525
0.00174638
0.00177357
0.00193376
0.0021803
0.0025308
0.00206102
0.00182864
0.00167757
0.000761265
0.000424098
4.37909e-05
0.00015552
0.000923623
0.002023
0.00354632
0.00478078
0.00401805
0.00261428
0.00168191
0.00129145
0.0010776
0.00118758
0.00119384
0.00151424
0.00123444
0.00139957
0.000937994
0.000661612
0.000316292
0.000341999
2.29118e-05
9.66512e-05
0.000552579
0.0010965
0.00220003
0.00198596
0.00105362
0.00102898
0.000293643
0.000545037
0.000415456
0.000328257
0.000289384
0.000490515
0.000603998
0.000403786
0.000256051
0.000349173
0.000248309
1.09423e-05
0.000171886
0.000125941
0.00018821
0.000237503
0.000839811
0.0240348
0.018448
0.0134505
0.00968795
0.00786995
0.00687406
0.00693367
0.00725137
0.00799775
0.00866361
0.00839473
0.00774591
0.00665268
0.00485448
0.00337991
0.00254194
0.00251277
0.00435212
0.00796476
0.0126527
0.0207643
0.0160381
0.0116308
0.00842496
0.00684254
0.00622446
0.00622718
0.00625738
0.00686108
0.00741981
0.0074372
0.00688131
0.00582665
0.00414279
0.00293728
0.00199148
0.00199524
0.00377224
0.00679822
0.0106503
0.0178855
0.013639
0.0097045
0.00737275
0.00550959
0.00483578
0.00520774
0.00557688
0.00601193
0.00620809
0.00648473
0.00568857
0.00464032
0.00364845
0.00229452
0.00171771
0.0016663
0.00300725
0.00548167
0.00890123
0.0145387
0.0115631
0.00838743
0.00591035
0.00473924
0.00444493
0.00410006
0.00460556
0.00491028
0.00509369
0.0052141
0.00486166
0.00379611
0.00292769
0.00193341
0.00151851
0.00149415
0.00245856
0.00463064
0.00713416
0.0116046
0.00907765
0.00673896
0.00466543
0.00368218
0.00349678
0.00334825
0.00364567
0.00379204
0.00426529
0.00424791
0.00374394
0.00326638
0.00246316
0.00135481
0.00095796
0.00107878
0.00204658
0.00366142
0.00560957
0.00839116
0.00650745
0.00467193
0.00360276
0.00295375
0.00228053
0.00221256
0.00266875
0.00287094
0.00287703
0.00321596
0.00271643
0.0022432
0.00183636
0.00108713
0.000835959
0.000754925
0.00132417
0.00257459
0.00394022
0.0050518
0.00402452
0.00291876
0.0017766
0.00172232
0.00155728
0.0014532
0.0016394
0.00179259
0.00189517
0.00172676
0.00190929
0.00137062
0.000918869
0.000724078
0.000396786
0.000507
0.000793177
0.00167324
0.00249514
0.00162968
0.00134125
0.00119705
0.000621791
0.000690439
0.00065452
0.000572222
0.000418883
0.000350012
0.000565597
0.000458137
0.000703696
0.00056434
0.00031014
0.000185845
0.000225744
0.000306813
0.000158379
0.000535109
0.000626516
0.0251353
0.0196382
0.0147017
0.0114493
0.00945096
0.00835596
0.00881423
0.00931322
0.00997111
0.010625
0.0105175
0.0100982
0.00880177
0.00698071
0.00573018
0.00456702
0.00474487
0.00651317
0.00992447
0.0142996
0.0218234
0.0171434
0.0128334
0.00986217
0.00811243
0.00754346
0.00756019
0.00795292
0.00877538
0.00938011
0.00948952
0.00897064
0.00770119
0.00633576
0.00479862
0.00374915
0.00383512
0.00538959
0.00843023
0.0117957
0.0186738
0.0144487
0.0110643
0.00849091
0.00699912
0.00655829
0.00646829
0.00678449
0.0075317
0.00806809
0.00809357
0.00757373
0.00670136
0.0053899
0.00403704
0.00323123
0.00325642
0.00465332
0.00710478
0.0096647
0.0153322
0.0122093
0.0092411
0.00721533
0.00574989
0.00557755
0.00534581
0.00555989
0.00610517
0.00647342
0.00689693
0.00622981
0.00553612
0.00418501
0.00339289
0.00263475
0.00247605
0.00396096
0.00587876
0.00824801
0.0120889
0.0096845
0.00730219
0.00566619
0.00481709
0.00422627
0.00419752
0.00443918
0.00494483
0.0051614
0.00559157
0.00481963
0.00424699
0.0034782
0.00251206
0.00207938
0.00230545
0.00283436
0.00455382
0.00629918
0.0087288
0.00694754
0.00542339
0.00413214
0.00348444
0.00340183
0.00301666
0.00322801
0.00354749
0.00378961
0.00373583
0.0035833
0.00274215
0.00255605
0.00197055
0.00142939
0.00153301
0.00203554
0.00333516
0.004512
0.00546419
0.00418563
0.00319556
0.00239326
0.00199737
0.0020445
0.0018885
0.00194539
0.0021885
0.00241667
0.0022568
0.00232295
0.00183845
0.00148037
0.000992441
0.000680027
0.00110397
0.00136397
0.00207283
0.00280882
0.00189634
0.00142544
0.00110181
0.000692239
0.000753175
0.000760057
0.000681101
0.000665706
0.00110951
0.000628848
0.000919075
0.000497268
0.000506474
0.000484234
0.000300685
0.000293294
0.000421953
0.000769521
0.000509778
0.000978593
0.0259228
0.020956
0.0159505
0.0130357
0.0108181
0.00994271
0.0101407
0.0108993
0.0117629
0.0125398
0.0128812
0.0121897
0.0108802
0.00893132
0.00721486
0.00638566
0.00650761
0.0082266
0.0111734
0.0154745
0.0225761
0.0182389
0.0141679
0.0110529
0.00975314
0.00875163
0.00896048
0.00950548
0.0101365
0.0111973
0.0112238
0.0107009
0.0093725
0.00789766
0.00650843
0.00555063
0.00559557
0.00691544
0.00981624
0.0131232
0.0193792
0.015511
0.0121564
0.00972759
0.00806295
0.00769695
0.00763036
0.00794131
0.00891683
0.00924987
0.00956764
0.00908024
0.00832169
0.00679531
0.00544459
0.00447172
0.0047108
0.00594444
0.00820747
0.0108398
0.0159954
0.0129472
0.0101276
0.00785129
0.00675691
0.0063249
0.00642182
0.00683793
0.00729967
0.00747309
0.00783654
0.00771848
0.00677993
0.00557925
0.00436373
0.00371808
0.00399327
0.00474839
0.00688677
0.00893772
0.0125824
0.0102069
0.00812711
0.00614708
0.00536054
0.00492951
0.00500227
0.00519237
0.006049
0.00638496
0.00621498
0.00596263
0.0051644
0.00447325
0.00350306
0.00286961
0.00293418
0.00375915
0.00498395
0.00721804
0.00941406
0.00761903
0.00568768
0.00463017
0.00365576
0.00345917
0.00370866
0.00396177
0.00423481
0.00462216
0.0044224
0.00446776
0.0039264
0.00304701
0.0022031
0.00223849
0.00211197
0.00244193
0.00382432
0.00526249
0.00557607
0.00447794
0.00350828
0.00282116
0.0023311
0.00231849
0.00235849
0.00231798
0.00257876
0.00285325
0.00273753
0.00262974
0.00219678
0.00187832
0.00166794
0.00130249
0.00135884
0.00163614
0.00218403
0.00320857
0.00188149
0.00170629
0.00132876
0.000885674
0.000726178
0.000536411
0.000873013
0.000802829
0.0011314
0.000946618
0.000898437
0.000853389
0.000881957
0.000938142
0.000417738
0.000241707
0.00061833
0.000448128
0.00116577
0.0010577
0.026648
0.0219847
0.0173794
0.0140319
0.0119759
0.0113299
0.0114289
0.01225
0.0131292
0.0139255
0.0142311
0.0136216
0.0123159
0.0106497
0.00900761
0.00788602
0.00799466
0.00962995
0.0127195
0.0164104
0.0233378
0.0190964
0.0150794
0.0118115
0.0105462
0.0100015
0.00994016
0.0104459
0.0115449
0.0120867
0.0125973
0.0119864
0.0106995
0.0094097
0.00778491
0.006894
0.00677476
0.00807297
0.0107965
0.0141973
0.0197771
0.0164791
0.0128937
0.0105077
0.00891299
0.00835697
0.00859283
0.00889956
0.00987022
0.0105015
0.0104821
0.0104317
0.0091415
0.0077455
0.00680288
0.00595666
0.00605
0.00709828
0.00929132
0.0117024
0.0162464
0.0136317
0.010814
0.00863777
0.00744324
0.00704922
0.00700845
0.00761192
0.00830387
0.00897971
0.00900548
0.00877078
0.00760933
0.00653346
0.00558716
0.0046641
0.00469045
0.00568165
0.00756501
0.009645
0.0127896
0.0107119
0.00859538
0.00670342
0.0057481
0.00551413
0.0057917
0.00603612
0.00625481
0.00702495
0.00721903
0.00669707
0.00601142
0.00513292
0.0041412
0.00366229
0.00382419
0.00456909
0.00603726
0.00776171
0.00946132
0.00796902
0.00584284
0.0050041
0.00448555
0.00407137
0.00400382
0.00433209
0.00465935
0.00522691
0.00526688
0.00504185
0.00433777
0.00370077
0.00321065
0.0027837
0.00273558
0.00311499
0.00442532
0.00559869
0.00581134
0.00484025
0.0037945
0.0031433
0.00264433
0.00246692
0.00267886
0.00268198
0.00286858
0.00336757
0.00330614
0.0027592
0.00253403
0.00226589
0.00188176
0.0018106
0.00179029
0.00222227
0.00257394
0.00340125
0.00191328
0.00153964
0.00131264
0.000980465
0.000847809
0.000934423
0.000567379
0.000826759
0.000940217
0.00115012
0.00112992
0.00121211
0.000970683
0.000691909
0.000634226
0.000607207
0.000477768
0.000766686
0.000814887
0.00100625
0.0270147
0.0224029
0.0181457
0.0146403
0.0128446
0.01214
0.0121528
0.0130822
0.0141427
0.014933
0.0152648
0.0146984
0.0134308
0.0116291
0.0100973
0.00895434
0.00925975
0.0106697
0.0138318
0.0173193
0.0236573
0.0197707
0.0157402
0.012888
0.0114697
0.0105464
0.0108354
0.0114459
0.0121635
0.0130777
0.0133455
0.0127175
0.0116476
0.0101025
0.00881642
0.00784017
0.00783392
0.00928461
0.0118292
0.0149064
0.0199544
0.0166866
0.0134612
0.0110507
0.00969282
0.00907301
0.00929258
0.00981062
0.0105274
0.0111899
0.0115346
0.0111408
0.0102262
0.00880801
0.00750264
0.00654418
0.00659943
0.00776595
0.010215
0.0126469
0.0168091
0.0140193
0.0113303
0.00935388
0.00795774
0.00781337
0.00745199
0.00805403
0.00884041
0.00940419
0.00929758
0.00908404
0.00822841
0.00739683
0.0061953
0.0056351
0.00535822
0.00642833
0.00828792
0.0104069
0.0130846
0.0110448
0.00870071
0.00743945
0.00629965
0.00614416
0.00602078
0.00632741
0.00696237
0.00729266
0.0076787
0.00714532
0.00663171
0.00571616
0.00497157
0.00445279
0.00427903
0.00497706
0.00635501
0.00793611
0.00981006
0.00796409
0.00652531
0.00554356
0.00469233
0.00441267
0.0043879
0.00468907
0.00523109
0.0055245
0.0054546
0.00517593
0.0047744
0.00405149
0.00367926
0.00303264
0.00322629
0.0036371
0.0045069
0.00576894
0.00573072
0.00493054
0.0039118
0.00340455
0.00301663
0.0027225
0.00289351
0.00305569
0.00281759
0.00340222
0.00334326
0.00339693
0.00281617
0.00237852
0.00223312
0.00197003
0.00194852
0.00234541
0.00246656
0.00361676
0.00213203
0.0017125
0.00156428
0.00133958
0.000779345
0.00115388
0.000822699
0.0009335
0.000800925
0.00114708
0.00126383
0.000960959
0.00085062
0.000589998
0.000961118
0.000501882
0.000618651
0.000533614
0.00092495
0.00126008
0.0271954
0.0225336
0.0184858
0.0151843
0.0133292
0.0126122
0.0125844
0.0134164
0.0140499
0.014921
0.0153487
0.014761
0.0136634
0.0118691
0.0106777
0.00975187
0.00999827
0.0115594
0.0140226
0.0175947
0.0237267
0.0196802
0.0162914
0.0133895
0.0119061
0.0110152
0.0111044
0.0118078
0.0122931
0.0132802
0.0133943
0.013095
0.0118567
0.0104205
0.00906599
0.00835521
0.00855065
0.00964241
0.0123561
0.0154681
0.0202447
0.017059
0.0137095
0.0114948
0.0100011
0.00936264
0.00953202
0.00988115
0.0107006
0.0115501
0.0117503
0.0113115
0.0104606
0.00914926
0.00792919
0.00722408
0.00741434
0.00828753
0.0103273
0.012761
0.0168211
0.0142824
0.0114832
0.00961291
0.008351
0.00781574
0.00816432
0.00842893
0.00879936
0.00936556
0.00969835
0.00911806
0.00842204
0.00765197
0.00644691
0.00593081
0.0061958
0.00675259
0.00867732
0.0105804
0.0132523
0.0113101
0.0089463
0.00753162
0.00663988
0.00637602
0.00617717
0.00660831
0.00697499
0.00766622
0.00758936
0.00742998
0.0067154
0.0060033
0.00495433
0.00469112
0.00460333
0.00533799
0.00683726
0.00825737
0.00989148
0.00809661
0.00692674
0.00545102
0.00495089
0.00463971
0.00439061
0.00494171
0.00505345
0.00564607
0.00551883
0.00534636
0.00495592
0.00415086
0.00392776
0.00321659
0.00360415
0.00407026
0.00490285
0.0058594
0.00588113
0.00519431
0.00405982
0.00341078
0.00293711
0.00273886
0.0028651
0.00299861
0.00300919
0.00345601
0.00347069
0.00328075
0.00311797
0.00252504
0.00227478
0.00223555
0.0020773
0.00224484
0.00321136
0.00342854
0.00183129
0.00158886
0.00152955
0.00106198
0.001163
0.000803066
0.00088635
0.000869728
0.000826095
0.00124314
0.00118569
0.00108631
0.00106788
0.000973398
0.000847553
0.000512874
0.000736831
0.000580897
0.00129217
0.001305
0.0267425
0.0226426
0.0181101
0.0152262
0.0133864
0.0126023
0.0124928
0.0130628
0.0137775
0.0147533
0.0149133
0.0146532
0.0132194
0.0116986
0.010504
0.0099888
0.0102881
0.0117145
0.0147013
0.0176549
0.0233935
0.0197628
0.0161462
0.0135914
0.0116319
0.0109652
0.0110212
0.0114883
0.0123433
0.0130142
0.0128583
0.0127375
0.0114529
0.0104026
0.00921959
0.00853656
0.00884305
0.0100952
0.01248
0.015393
0.0203545
0.0168338
0.0137165
0.0114373
0.0100807
0.00935225
0.0094593
0.00959452
0.0105921
0.0113215
0.0110554
0.011109
0.00986045
0.00886272
0.00776207
0.00720625
0.00753028
0.00872158
0.0108433
0.0130228
0.0165988
0.0139467
0.0114602
0.00968654
0.00845427
0.00777658
0.00797351
0.00821638
0.00871115
0.00915432
0.00930745
0.0090542
0.00852176
0.00741307
0.00654108
0.0062869
0.00626811
0.00714812
0.008856
0.0107244
0.0131911
0.0111923
0.00917286
0.00755923
0.00674696
0.00645373
0.0061402
0.00633842
0.00684
0.00723722
0.00753815
0.00713801
0.00639667
0.0058757
0.00510288
0.00463632
0.00481957
0.00546309
0.00676763
0.00813109
0.00971947
0.00826964
0.00677157
0.00561061
0.00490753
0.00454788
0.00448443
0.0045092
0.00485683
0.00524868
0.00540401
0.0053374
0.00464912
0.00420068
0.00379882
0.00328919
0.00347115
0.0041057
0.00513694
0.00607764
0.00565853
0.0050996
0.00408041
0.00328011
0.00320768
0.00242263
0.00270991
0.00300337
0.00312596
0.00332896
0.00335621
0.0030564
0.00276444
0.00250747
0.00233111
0.00221192
0.00216772
0.00252555
0.0031945
0.00377934
0.00214045
0.00161163
0.00142554
0.000988189
0.00113032
0.00106744
0.0010591
0.000734007
0.00104586
0.00115861
0.00112427
0.00118045
0.00101609
0.000847318
0.000765641
0.000548272
0.000753996
0.000557364
0.0010129
0.00118556
0.0261069
0.0217929
0.0178304
0.0150413
0.0130189
0.0121627
0.0119454
0.0123562
0.012936
0.0135706
0.0137072
0.013404
0.0123667
0.0111954
0.0101729
0.00985078
0.00975655
0.0113877
0.0142014
0.0172384
0.0227962
0.0191557
0.0155979
0.0132226
0.0113296
0.0108838
0.0104994
0.0105937
0.0114623
0.0119791
0.0121373
0.0118005
0.0109534
0.00961569
0.00897713
0.00815864
0.00854252
0.00997796
0.012215
0.0147768
0.0194165
0.0164094
0.0135682
0.0112049
0.00967757
0.00909724
0.00895351
0.00929386
0.00972442
0.0103857
0.0105589
0.0101295
0.00930783
0.00817037
0.00746691
0.00673338
0.00735337
0.00840786
0.0101769
0.0127409
0.0163756
0.0137626
0.0113189
0.00907678
0.00820292
0.00745619
0.00758106
0.00760119
0.00808959
0.008506
0.00858762
0.0084307
0.00766313
0.00668612
0.00594572
0.00553729
0.00617003
0.00675842
0.00821604
0.0101947
0.0129266
0.0107877
0.0089455
0.00732818
0.00665546
0.00599341
0.00594211
0.00605793
0.00651022
0.00696715
0.00690364
0.00658442
0.00605947
0.00551696
0.00478718
0.00453425
0.0044191
0.00533642
0.00660866
0.00803347
0.00919029
0.00801823
0.0066527
0.00552271
0.0046528
0.00433958
0.00438623
0.00437214
0.00468984
0.00513615
0.00497066
0.00474988
0.00419664
0.00411495
0.00360631
0.00329295
0.00347136
0.00370955
0.00511357
0.00574359
0.0056829
0.00510213
0.00381562
0.00326844
0.00308592
0.00263359
0.00271224
0.00265303
0.00268
0.00318142
0.00296827
0.00304088
0.00279957
0.0025142
0.00200215
0.00218555
0.00201514
0.00244267
0.00316338
0.00353701
0.00210526
0.00163142
0.00146349
0.00137885
0.0011786
0.000792536
0.000870186
0.000900674
0.00100143
0.00116439
0.00118933
0.00100553
0.000927421
0.000753999
0.000710738
0.000693942
0.000814186
0.000635148
0.00110152
0.00117716
0.0245309
0.0208284
0.0170135
0.0138545
0.0120782
0.0109973
0.0107335
0.0110661
0.0116222
0.0120211
0.0121544
0.0115924
0.010954
0.00998642
0.00891568
0.00866743
0.00916129
0.0106744
0.0132419
0.016499
0.0217198
0.0182234
0.0147795
0.012102
0.0106291
0.00983288
0.00942673
0.00965323
0.01006
0.0107088
0.0107237
0.0104816
0.00944215
0.0083562
0.00768642
0.00743489
0.00786696
0.00913872
0.0113298
0.0139884
0.0184125
0.0158884
0.0127839
0.0105011
0.00911169
0.00805161
0.00784831
0.0080343
0.00856283
0.0089468
0.00901696
0.00887042
0.00797921
0.00742045
0.00677623
0.00630918
0.00672559
0.00789131
0.00982628
0.011841
0.0155278
0.0130448
0.010707
0.00882303
0.00757607
0.00690056
0.00664864
0.0069102
0.00728932
0.00717014
0.00752404
0.00740579
0.00666072
0.00606139
0.00546924
0.00527434
0.00545933
0.00605036
0.00793327
0.00961379
0.0122905
0.010603
0.00858865
0.00672387
0.00598405
0.00530858
0.00520663
0.00555079
0.005711
0.00582876
0.0059107
0.00591196
0.00558144
0.00468726
0.00420379
0.00392618
0.00438527
0.00500411
0.00620377
0.00751079
0.00852567
0.00776792
0.00637401
0.00518948
0.00443592
0.00403501
0.00385089
0.00378057
0.0042934
0.0044951
0.00443637
0.00426138
0.00397772
0.00357863
0.00309081
0.00294004
0.00303396
0.00374288
0.00443944
0.00556884
0.00540736
0.00445409
0.00370232
0.00303394
0.00284388
0.00256332
0.00249498
0.00250718
0.00245241
0.00255752
0.00267744
0.00249843
0.00236179
0.00185738
0.00183149
0.0018248
0.00172028
0.00204063
0.00285994
0.00327556
0.00197458
0.0016073
0.00125353
0.0012746
0.000918401
0.00102798
0.000933986
0.00092735
0.00123184
0.000610493
0.00112637
0.000893064
0.000556292
0.000776888
0.000653731
0.000843489
0.000555139
0.000896131
0.00101505
0.00122509
0.0234623
0.0191932
0.0156271
0.0127376
0.0106236
0.00954745
0.00926628
0.00916184
0.0095361
0.00966767
0.00994821
0.00958702
0.00883591
0.00797177
0.00747648
0.0074042
0.00786203
0.0093362
0.011875
0.0148199
0.0203133
0.0170603
0.0136286
0.010878
0.00919597
0.0082917
0.00807564
0.00804591
0.00828577
0.00865976
0.00866085
0.0080904
0.00775078
0.0068893
0.00624554
0.00611804
0.00677855
0.00805441
0.0102262
0.0127625
0.0174489
0.0145201
0.0116533
0.00939657
0.00804563
0.00711591
0.00698961
0.00688743
0.00723332
0.00738657
0.00741753
0.00714437
0.0063984
0.00578932
0.00526347
0.00516991
0.00536846
0.00669955
0.00854064
0.0108262
0.0144348
0.0122125
0.00957434
0.00772393
0.00660512
0.00597552
0.00572398
0.00573375
0.00603258
0.00608702
0.00598108
0.00588972
0.00546859
0.00491608
0.00434324
0.0043755
0.00432219
0.00536186
0.00714006
0.0087471
0.0114245
0.00962256
0.00772588
0.00604268
0.00520786
0.00477588
0.00449447
0.00420779
0.00476492
0.00486764
0.00492428
0.00448341
0.00424027
0.00374214
0.00338415
0.00333709
0.00364442
0.00446416
0.00553814
0.00684947
0.00816609
0.00694339
0.00552734
0.00448194
0.00385801
0.00323294
0.0031599
0.0033995
0.0034177
0.00348436
0.00355896
0.00338249
0.00319664
0.00257119
0.00232435
0.00254692
0.00238441
0.00330514
0.00378061
0.00488349
0.00509544
0.0042273
0.00347948
0.00305342
0.00244013
0.0021777
0.00219841
0.00195943
0.00193975
0.00210964
0.00215174
0.00189888
0.00175576
0.00177535
0.0014902
0.00138923
0.00149514
0.0020326
0.00251746
0.00285169
0.00150407
0.00154759
0.00120047
0.00090921
0.000560156
0.000779876
0.000459704
0.000768458
0.000715909
0.000578514
0.000795169
0.000628325
0.000608851
0.000591278
0.000456475
0.00054445
0.00062087
0.00077397
0.000673839
0.00124853
0.0210693
0.0175454
0.0137761
0.0107923
0.00889507
0.00780227
0.00711066
0.00708531
0.00703434
0.00726412
0.00736358
0.00695898
0.00639247
0.00575283
0.00522187
0.00524009
0.00583432
0.00763898
0.0101318
0.013202
0.0187156
0.0152942
0.0120693
0.00942694
0.00782044
0.00650633
0.00606797
0.00602188
0.00627733
0.00647925
0.00646256
0.00618884
0.0054752
0.00497426
0.00443408
0.0045449
0.00509382
0.00629597
0.00862106
0.0112673
0.0157617
0.0129217
0.0102573
0.00801314
0.00644354
0.00561892
0.00506988
0.00500264
0.00531861
0.00529287
0.00544593
0.00508258
0.00466635
0.00399685
0.00338026
0.00386097
0.00396028
0.00518986
0.0071155
0.00932045
0.0129547
0.0107768
0.00845688
0.00668172
0.00549093
0.00454014
0.00420503
0.00420083
0.00433234
0.00444254
0.00417576
0.00397742
0.00365983
0.00332597
0.0028671
0.00288715
0.00355078
0.00433466
0.00579736
0.00757352
0.0104949
0.00870917
0.00667424
0.00517206
0.0044478
0.00367183
0.0032231
0.00341244
0.00353524
0.00335874
0.0036425
0.00335085
0.0028607
0.00261854
0.00232586
0.0021525
0.00252988
0.0032603
0.0044578
0.00582039
0.00756163
0.00650222
0.00494126
0.00393881
0.00326821
0.00260725
0.00266258
0.00244458
0.00234602
0.00256988
0.00220195
0.00242086
0.00224426
0.00168049
0.0016532
0.00181393
0.00176578
0.00241539
0.00335449
0.00406739
0.0047568
0.00394077
0.00289117
0.00228495
0.00152715
0.00165989
0.00166911
0.00129459
0.00144737
0.00150061
0.00161886
0.00157169
0.00137372
0.00103459
0.00112816
0.000977262
0.00112353
0.0014417
0.00211287
0.00248939
0.00174089
0.00153055
0.000994617
0.000857517
0.000491492
0.000652736
0.000687452
0.000565654
0.000617764
0.000622258
0.000550752
0.000628875
0.000305736
0.000532779
0.000390334
0.000400214
0.000413129
0.000375296
0.00092659
0.000985121
0.0188415
0.0152585
0.0114224
0.00872226
0.00651834
0.00521069
0.00466788
0.00419094
0.00442538
0.00427908
0.00423693
0.00425922
0.00352323
0.00303397
0.00271862
0.00300169
0.00394826
0.00526124
0.00795436
0.0109609
0.016309
0.0133368
0.0100381
0.00749544
0.00556606
0.00472579
0.00391051
0.00364033
0.00353824
0.00360106
0.00350146
0.00331182
0.00278047
0.00236125
0.00218314
0.00244895
0.00281879
0.00418689
0.00643076
0.00917485
0.0142095
0.0112313
0.00855945
0.00622538
0.00481312
0.00403143
0.00341806
0.00304279
0.00313421
0.00321118
0.00297203
0.00288571
0.00245377
0.00225667
0.00178456
0.00177765
0.00240072
0.00378294
0.00555398
0.00753415
0.0115476
0.00934895
0.00676226
0.00524377
0.0040249
0.00294807
0.00273329
0.00234216
0.00248813
0.00255284
0.00244443
0.00231822
0.0019244
0.00129734
0.00156507
0.00136747
0.00214309
0.0028923
0.00456508
0.00602718
0.00900566
0.00767093
0.00544966
0.00423115
0.00309556
0.00247847
0.00195959
0.00209629
0.00191473
0.00207286
0.00175542
0.00156638
0.00146938
0.00128908
0.00092622
0.00108969
0.0015166
0.00231914
0.00335547
0.00454358
0.00654087
0.00540326
0.00402657
0.00289583
0.00210536
0.00168377
0.00130537
0.00142049
0.00141564
0.00128232