/*--------------------------------*- C++ -*----------------------------------*\
| =========                 |                                                 |
| \\      /  F ield         | OpenFOAM: The Open Source CFD Toolbox           |
|  \\    /   O peration     | Version:  2212                                  |
|   \\  /    A nd           | Website:  www.openfoam.com                      |
|    \\/     M anipulation  |                                                 |
\*---------------------------------------------------------------------------*/
FoamFile
{
    version     2.0;
    format      ascii;
    arch        "LSB;label=32;scalar=64";
    class       volScalarField;
    location    "0";
    object      T;
}
// * * * * * * * * * * * * * * * * * * * * * * * * * * * * * * * * * * * * * //

dimensions      [0 0 0 1 0 0 0];

internalField   nonuniform List<scalar> 
3200
(
343.06
343.909
344.912
345.789
346.562
347.255
347.539
347.904
348.313
348.371
348.212
348.008
347.424
347.05
346.473
345.587
344.832
344.12
342.832
342.142
337.474
338.211
339.035
339.747
340.516
341.07
341.349
341.651
342.028
342.025
341.881
341.735
341.21
340.918
340.404
339.624
338.975
338.331
337.207
336.659
331.844
332.452
333.081
333.685
334.416
334.819
335.079
335.329
335.673
335.61
335.448
335.381
334.936
334.721
334.3
333.628
333.024
332.505
331.537
331.132
326.081
326.632
327.128
327.608
328.226
328.56
328.77
328.977
329.287
329.178
329.048
328.979
328.66
328.473
328.135
327.571
327.054
326.64
325.821
325.478
320.321
320.76
321.161
321.504
322.008
322.264
322.447
322.6
322.787
322.709
322.634
322.567
322.353
322.169
321.917
321.502
321.134
320.729
320.102
319.873
314.512
314.877
315.169
315.398
315.729
315.933
316.084
316.147
316.205
316.268
316.177
316.109
315.988
315.813
315.661
315.377
315.163
314.816
314.374
314.228
308.689
308.954
309.123
309.244
309.463
309.602
309.714
309.727
309.705
309.794
309.737
309.689
309.604
309.5
309.39
309.258
309.145
308.918
308.637
308.57
302.92
303.018
303.047
303.093
303.164
303.235
303.27
303.272
303.273
303.285
303.259
303.255
303.234
303.18
303.124
303.09
303.084
302.985
302.914
302.876
344.053
344.717
345.887
346.777
347.63
347.979
348.396
348.786
349.265
349.109
349.076
348.766
348.477
347.957
347.304
346.611
345.682
344.725
343.722
343.042
338.269
338.83
339.851
340.603
341.4
341.671
341.978
342.334
342.766
342.671
342.6
342.354
342.065
341.607
341.086
340.406
339.653
338.82
337.948
337.393
332.449
332.89
333.766
334.429
335.099
335.35
335.568
335.854
336.2
336.118
336.106
335.91
335.633
335.273
334.798
334.181
333.585
332.906
332.145
331.736
326.581
326.937
327.665
328.211
328.775
328.989
329.135
329.382
329.633
329.569
329.575
329.422
329.187
328.944
328.466
327.991
327.495
326.948
326.329
326.026
320.706
320.94
321.577
321.978
322.424
322.553
322.699
322.915
323.028
323.014
323.036
322.901
322.716
322.576
322.155
321.805
321.379
320.935
320.446
320.264
314.809
314.932
315.491
315.719
315.985
316.141
316.236
316.432
316.434
316.473
316.459
316.378
316.239
316.151
315.846
315.598
315.28
314.938
314.613
314.507
308.903
308.966
309.311
309.447
309.582
309.703
309.77
309.906
309.843
309.882
309.896
309.847
309.801
309.704
309.508
309.388
309.163
308.979
308.769
308.734
302.967
303.016
303.109
303.178
303.202
303.235
303.289
303.323
303.297
303.314
303.316
303.302
303.296
303.242
303.206
303.153
303.079
303.031
302.931
302.943
344.981
346.044
346.811
347.789
348.83
349.144
349.541
349.857
350.431
350.362
350.239
349.809
349.55
349.082
348.288
347.595
346.679
345.723
344.747
343.793
339.06
339.998
340.677
341.51
342.377
342.643
342.973
343.265
343.725
343.651
343.604
343.227
343.018
342.561
341.932
341.313
340.482
339.707
338.837
338.034
333.099
333.881
334.507
335.201
335.926
336.162
336.374
336.651
337.002
336.922
336.96
336.625
336.431
336.09
335.525
334.977
334.258
333.671
332.924
332.247
327.118
327.681
328.279
328.892
329.423
329.658
329.756
330.028
330.286
330.213
330.252
329.988
329.835
329.543
329.083
328.629
328.045
327.544
327.001
326.457
321.1
321.51
322.045
322.503
322.896
323.081
323.145
323.392
323.607
323.527
323.555
323.384
323.238
322.999
322.631
322.278
321.812
321.416
321.033
320.658
315.061
315.351
315.762
316.061
316.362
316.443
316.532
316.711
316.874
316.824
316.83
316.72
316.639
316.472
316.158
315.939
315.582
315.291
315.057
314.802
309
309.206
309.494
309.622
309.856
309.839
309.934
310.038
310.123
310.107
310.101
310.055
309.998
309.903
309.707
309.569
309.372
309.188
309.061
308.931
303.022
303.078
303.186
303.223
303.299
303.298
303.324
303.364
303.386
303.389
303.392
303.39
303.348
303.304
303.26
303.21
303.134
303.082
303.041
303.011
346.099
347.095
347.904
349.109
349.811
350.429
350.838
351.216
351.463
351.521
351.333
351.188
350.8
350.26
349.757
348.794
347.626
346.906
345.681
344.8
340.089
340.883
341.586
342.623
343.257
343.771
344.083
344.456
344.623
344.666
344.512
344.402
344.033
343.56
343.125
342.32
341.282
340.692
339.63
338.879
333.995
334.599
335.253
336.101
336.607
337.082
337.29
337.615
337.754
337.828
337.672
337.604
337.261
336.84
336.509
335.827
334.939
334.446
333.602
332.95
327.858
328.342
328.902
329.593
329.894
330.384
330.514
330.811
330.91
330.958
330.833
330.777
330.478
330.125
329.859
329.28
328.579
328.205
327.54
327
321.684
322.104
322.512
323.055
323.233
323.628
323.779
323.997
324.051
324.076
323.981
323.95
323.681
323.411
323.264
322.759
322.264
321.958
321.447
321.071
315.522
315.809
316.088
316.446
316.588
316.868
317.011
317.133
317.198
317.202
317.136
317.121
316.936
316.702
316.624
316.283
315.939
315.694
315.346
315.095
309.336
309.448
309.622
309.88
309.989
310.101
310.22
310.261
310.309
310.359
310.296
310.294
310.183
310.076
309.983
309.76
309.578
309.433
309.216
309.094
303.113
303.153
303.226
303.323
303.355
303.381
303.407
303.434
303.444
303.483
303.445
303.455
303.4
303.38
303.34
303.271
303.208
303.168
303.087
303.048
347.094
348.251
349.135
350.196
350.822
351.494
352.012
352.704
352.67
352.758
352.733
352.361
351.932
351.39
350.783
349.816
348.934
348.193
346.813
345.965
340.864
341.84
342.603
343.6
344.087
344.687
345.13
345.763
345.717
345.758
345.715
345.433
345.051
344.57
344.101
343.168
342.442
341.764
340.596
339.936
334.602
335.425
336.086
336.934
337.325
337.868
338.246
338.782
338.745
338.715
338.686
338.484
338.181
337.701
337.386
336.548
335.949
335.373
334.365
333.877
328.364
329.003
329.556
330.269
330.602
331.036
331.351
331.745
331.703
331.676
331.628
331.486
331.303
330.839
330.663
329.928
329.454
328.974
328.105
327.749
322.084
322.527
323.035
323.599
323.827
324.183
324.419
324.709
324.656
324.633
324.632
324.499
324.382
323.999
323.856
323.285
322.919
322.54
321.859
321.586
315.796
316.074
316.455
316.866
317.063
317.278
317.452
317.659
317.61
317.626
317.632
317.474
317.463
317.148
317.057
316.641
316.393
316.039
315.601
315.412
309.491
309.628
309.915
310.116
310.282
310.372
310.493
310.587
310.586
310.589
310.579
310.517
310.499
310.297
310.277
309.999
309.85
309.588
309.326
309.244
303.177
303.216
303.342
303.399
303.448
303.468
303.507
303.541
303.557
303.544
303.536
303.536
303.534
303.425
303.46
303.37
303.309
303.196
303.136
303.094
348.008
349.153
350.121
351.186
351.867
352.715
353.468
353.627
353.853
354.059
353.948
353.502
353.121
352.522
351.976
350.936
350.107
348.945
347.829
347.087
341.646
342.651
343.421
344.425
345.008
345.747
346.405
346.553
346.702
346.93
346.797
346.379
346.078
345.489
345.038
344.195
343.456
342.398
341.456
340.872
335.257
336.115
336.741
337.579
338.103
338.756
339.268
339.436
339.574
339.721
339.624
339.252
339.006
338.47
338.123
337.414
336.785
335.903
335.117
334.61
328.915
329.539
330.073
330.688
331.193
331.753
332.161
332.294
332.459
332.561
332.447
332.087
331.933
331.459
331.225
330.587
330.131
329.399
328.764
328.285
322.576
322.982
323.441
323.789
324.296
324.722
325.003
325.111
325.301
325.407
325.256
324.998
324.829
324.5
324.307
323.821
323.463
322.847
322.378
321.931
316.212
316.404
316.762
316.938
317.379
317.68
317.848
317.936
318.103
318.199
318.074
317.88
317.733
317.541
317.396
317.025
316.765
316.265
316.001
315.633
309.757
309.841
310.064
310.176
310.455
310.632
310.705
310.761
310.859
310.943
310.891
310.731
310.642
310.564
310.426
310.204
310.07
309.759
309.603
309.392
303.271
303.296
303.377
303.42
303.494
303.568
303.606
303.606
303.653
303.668
303.647
303.617
303.56
303.537
303.487
303.415
303.391
303.269
303.203
303.163
349.116
350.191
351.176
352.231
353.138
354.027
354.348
354.735
355.049
355.151
354.92
354.472
354.372
353.503
353.123
352.288
351.132
350.155
349.036
348.104
342.622
343.513
344.41
345.304
346.091
346.867
347.154
347.46
347.736
347.884
347.629
347.264
347.187
346.375
346.074
345.327
344.324
343.484
342.551
341.793
336.064
336.837
337.64
338.358
339.001
339.66
339.941
340.184
340.42
340.567
340.371
339.996
339.968
339.208
338.998
338.331
337.489
336.792
336.041
335.411
329.503
330.127
330.873
331.334
331.956
332.439
332.694
332.896
333.128
333.252
333.078
332.726
332.726
332.1
331.957
331.283
330.705
330.082
329.528
329.018
322.95
323.444
324.071
324.374
324.898
325.241
325.434
325.569
325.802
325.899
325.739
325.429
325.485
324.991
324.875
324.32
323.92
323.361
323
322.558
316.417
316.753
317.267
317.461
317.805
318.04
318.153
318.246
318.433
318.504
318.403
318.154
318.184
317.834
317.808
317.376
317.136
316.665
316.461
316.145
309.878
310.087
310.378
310.494
310.687
310.814
310.9
310.947
311.054
311.109
311.056
310.918
310.943
310.712
310.722
310.42
310.281
309.993
309.89
309.713
303.307
303.374
303.491
303.531
303.587
303.631
303.651
303.659
303.713
303.729
303.719
303.667
303.674
303.589
303.59
303.478
303.437
303.366
303.321
303.267
349.987
351.093
352.432
353.193
354.112
354.852
355.426
355.959
356.221
356.017
356.147
355.757
355.473
354.832
354.046
353.096
352.112
351.126
349.83
348.93
343.379
344.348
345.522
346.166
346.937
347.617
348.117
348.565
348.736
348.565
348.713
348.359
348.109
347.52
346.813
346
345.182
344.318
343.231
342.458
336.755
337.593
338.544
339.081
339.724
340.362
340.783
341.129
341.207
341.148
341.233
340.912
340.727
340.178
339.578
338.906
338.274
337.51
336.635
335.951
330.061
330.795
331.605
332.019
332.535
333.069
333.416
333.705
333.713
333.708
333.723
333.486
333.31
332.829
332.395
331.849
331.355
330.699
330.023
329.387
323.4
323.996
324.641
324.908
325.365
325.724
326.041
326.212
326.243
326.272
326.201
326.031
325.912
325.527
325.188
324.804
324.407
323.889
323.364
322.86
316.712
317.176
317.658
317.8
318.148
318.406
318.629
318.749
318.772
318.803
318.728
318.609
318.504
318.246
317.992
317.729
317.432
317.091
316.705
316.351
310.027
310.332
310.646
310.685
310.894
311.042
311.179
311.252
311.272
311.272
311.242
311.195
311.111
310.947
310.828
310.637
310.474
310.304
310.03
309.836
303.355
303.478
303.58
303.591
303.653
303.677
303.734
303.766
303.783
303.771
303.759
303.75
303.704
303.674
303.633
303.56
303.528
303.462
303.365
303.276
350.924
352.078
353.609
354.346
355.297
355.8
356.613
356.972
356.95
357.11
357.238
356.659
356.439
355.816
355.236
354.226
353.362
351.989
350.941
349.62
344.217
345.189
346.503
347.176
348.014
348.436
349.131
349.395
349.373
349.534
349.623
349.149
348.95
348.41
347.879
347.008
346.28
345.118
344.167
343.034
337.484
338.265
339.396
339.999
340.649
341.052
341.56
341.757
341.759
341.965
341.938
341.622
341.457
340.962
340.529
339.751
339.176
338.201
337.396
336.424
330.671
331.334
332.25
332.771
333.315
333.594
333.999
334.152
334.202
334.358
334.317
334.058
333.947
333.532
333.185
332.533
332.091
331.263
330.589
329.802
323.84
324.418
325.067
325.508
325.948
326.154
326.414
326.524
326.614
326.773
326.675
326.46
326.39
326.085
325.822
325.324
324.998
324.325
323.811
323.201
317.016
317.459
317.916
318.239
318.543
318.684
318.855
318.921
319.031
319.151
319.066
318.899
318.818
318.665
318.438
318.115
317.875
317.342
317.05
316.609
310.238
310.5
310.746
310.971
311.173
311.211
311.333
311.355
311.442
311.52
311.432
311.348
311.29
311.221
311.087
310.902
310.724
310.39
310.262
309.973
303.421
303.503
303.612
303.687
303.735
303.754
303.809
303.794
303.831
303.863
303.811
303.803
303.787
303.774
303.719
303.664
303.595
303.474
303.426
303.334
351.816
353.016
354.285
355.17
356.325
356.903
357.31
357.945
357.899
358.058
357.944
357.703
357.369
356.631
356.1
355.097
354.24
352.916
351.87
350.588
344.97
346.019
347.128
347.91
348.89
349.33
349.728
350.288
350.224
350.349
350.173
350.051
349.745
349.131
348.675
347.784
347.044
345.872
345.002
343.922
338.13
338.979
339.974
340.662
341.415
341.732
342.143
342.58
342.529
342.622
342.424
342.333
342.116
341.574
341.195
340.45
339.821
338.846
338.1
337.213
331.238
331.964
332.768
333.366
333.921
334.139
334.52
334.887
334.839
334.911
334.711
334.603
334.472
334.017
333.759
333.171
332.595
331.817
331.191
330.483
324.305
324.899
325.534
326.011
326.379
326.576
326.851
327.165
327.089
327.173
327.04
326.909
326.845
326.432
326.275
325.83
325.349
324.805
324.277
323.726
317.328
317.813
318.283
318.634
318.853
319.002
319.15
319.447
319.344
319.444
319.341
319.217
319.168
318.856
318.777
318.447
318.113
317.759
317.356
316.909
310.401
310.708
310.983
311.186
311.329
311.437
311.507
311.682
311.614
311.696
311.617
311.538
311.488
311.325
311.275
311.076
310.882
310.648
310.45
310.147
303.482
303.578
303.693
303.75
303.799
303.844
303.864
303.905
303.905
303.926
303.894
303.863
303.845
303.801
303.779
303.703
303.632
303.58
303.509
303.412
352.616
353.549
354.997
356.18
356.836
357.563
357.964
358.469
358.627
358.972
358.921
358.274
358.124
357.639
356.699
355.887
354.934
353.795
352.462
351.424
345.669
346.46
347.726
348.746
349.282
349.905
350.298
350.709
350.831
351.12
351.056
350.533
350.387
349.984
349.189
348.456
347.647
346.671
345.47
344.62
338.728
339.36
340.399
341.282
341.721
342.302
342.634
342.933
343.004
343.263
343.238
342.742
342.63
342.262
341.694
340.996
340.331
339.526
338.484
337.798
331.744
332.24
333.087
333.811
334.187
334.622
334.92
335.149
335.22
335.443
335.383
335.01
334.847
334.528
334.161
333.535
333.027
332.333
331.479
330.969
324.689
325.069
325.777
326.353
326.604
326.941
327.151
327.343
327.416
327.615
327.529
327.234
327.107
326.848
326.546
326.101
325.691
325.168
324.489
324.094
317.667
317.946
318.433
318.869
319.025
319.272
319.406
319.5
319.604
319.755
319.657
319.44
319.372
319.205
318.966
318.669
318.392
318.008
317.501
317.253
310.617
310.826
311.091
311.377
311.404
311.586
311.7
311.664
311.799
311.877
311.827
311.685
311.65
311.525
311.388
311.222
311.067
310.832
310.505
310.398
303.565
303.653
303.719
303.832
303.809
303.899
303.933
303.903
303.945
304.015
303.984
303.923
303.895
303.862
303.805
303.763
303.703
303.634
303.524
303.468
353.027
354.228
355.729
356.875
357.656
358.208
358.676
359.339
359.455
359.68
359.598
359.297
358.891
358.516
357.545
356.757
355.522
354.347
353.1
352.153
346.044
347.107
348.389
349.349
349.997
350.481
350.885
351.47
351.576
351.828
351.717
351.428
351.055
350.729
349.897
349.224
348.159
347.115
346.051
345.262
339.058
339.927
340.961
341.803
342.309
342.721
343.081
343.598
343.666
343.923
343.77
343.517
343.223
342.967
342.246
341.691
340.738
339.91
338.993
338.344
332.02
332.694
333.519
334.252
334.603
334.979
335.319
335.654
335.752
335.965
335.808
335.603
335.367
335.158
334.584
334.136
333.384
332.671
331.908
331.414
324.941
325.467
326.109
326.69
326.909
327.206
327.48
327.681
327.835
327.956
327.884
327.704
327.509
327.368
326.886
326.565
326.024
325.495
324.866
324.463
317.834
318.248
318.676
319.118
319.222
319.443
319.636
319.769
319.978
319.955
319.981
319.811
319.63
319.568
319.215
319.009
318.623
318.208
317.774
317.537
310.703
311.003
311.239
311.501
311.543
311.713
311.753
311.879
312.024
311.955
312.012
311.891
311.783
311.768
311.521
311.406
311.161
310.932
310.681
310.563
303.588
303.699
303.762
303.848
303.868
303.931
303.938
303.973
304.039
304.006
304.039
303.968
303.924
303.932
303.85
303.837
303.724
303.661
303.574
303.539
353.758
354.72
356.006
357.111
358.256
358.655
359.308
360.037
360.352
360.398
360.165
360.153
359.548
358.847
358.061
357.318
356.196
354.904
353.909
352.564
346.661
347.446
348.627
349.57
350.549
350.902
351.381
352.07
352.387
352.465
352.198
352.179
351.606
351.011
350.353
349.686
348.736
347.595
346.797
345.646
339.563
340.149
341.222
342.001
342.81
343.086
343.504
344.056
344.379
344.441
344.215
344.19
343.606
343.194
342.63
342.03
341.279
340.28
339.619
338.679
332.428
332.857
333.765
334.417
335.011
335.276
335.585
336.001
336.263
336.383
336.235
336.185
335.661
335.377
334.859
334.468
333.769
332.941
332.411
331.715
325.237
325.577
326.292
326.797
327.207
327.482
327.671
328.007
328.174
328.292
328.222
328.176
327.758
327.522
327.102
326.858
326.249
325.631
325.215
324.727
318.015
318.321
318.838
319.208
319.435
319.675
319.778
320.026
320.167
320.214
320.182
320.186
319.79
319.697
319.4
319.216
318.768
318.325
318.017
317.702
310.797
311.03
311.302
311.535
311.672
311.847
311.912
312.048
312.11
312.14
312.121
312.15
311.875
311.841
311.659
311.559
311.25
311.03
310.841
310.657
303.604
303.682
303.802
303.839
303.923
303.992
304.01
304.045
304.047
304.056
304.061
304.05
303.984
303.964
303.9
303.873
303.749
303.696
303.62
303.557
354.32
355.342
356.576
357.531
358.77
359.345
359.923
360.395
360.586
361.018
360.81
360.643
360.012
359.539
358.586
357.567
356.746
355.469
354.356
353.144
347.157
347.995
349.067
349.885
350.991
351.518
351.923
352.353
352.547
352.925
352.737
352.578
352.055
351.633
350.812
349.927
349.181
348.115
347.17
346.155
339.966
340.588
341.565
342.212
343.174
343.613
343.948
344.341
344.494
344.774
344.654
344.525
344.034
343.715
343.016
342.288
341.663
340.73
339.939
339.043
332.724
333.172
334.049
334.562
335.386
335.674
335.966
336.303
336.445
336.59
336.565
336.461
335.994
335.795
335.196
334.619
334.095
333.33
332.667
331.919
325.447
325.791
326.571
326.892
327.551
327.737
328.009
328.254
328.394
328.437
328.503
328.364
327.949
327.841
327.38
326.958
326.523
325.957
325.457
324.851
318.149
318.449
319.049
319.205
319.735
319.796
320.028
320.2
320.334
320.325
320.393
320.285
319.928
319.866
319.563
319.279
318.938
318.566
318.244
317.76
310.902
311.069
311.468
311.516
311.881
311.925
312.07
312.127
312.226
312.225
312.233
312.16
311.966
311.918
311.779
311.617
311.361
311.155
310.968
310.691
303.662
303.7
303.86
303.868
303.991
304.006
304.038
304.055
304.1
304.096
304.103
304.056
304.01
303.988
303.944
303.886
303.804
303.748
303.674
303.592
354.583
355.684
357.028
357.876
359.11
359.91
360.4
360.971
361.105
361.378
361.261
360.945
360.536
359.934
359.114
357.995
356.857
355.969
354.845
353.388
347.335
348.292
349.5
350.169
351.27
351.984
352.341
352.862
352.954
353.238
353.132
352.857
352.518
351.972
351.257
350.308
349.27
348.566
347.551
346.343
340.09
340.903
341.961
342.465
343.424
343.991
344.312
344.726
344.826
345.118
344.973
344.752
344.463
343.992
343.402
342.588
341.724
341.102
340.26
339.198
332.815
333.503
334.413
334.729
335.568
335.995
336.292
336.639
336.725
336.957
336.782
336.653
336.36
336.019
335.504
334.857
334.148
333.653
332.967
332.082
325.532
326.079
326.813
326.998
327.699
327.977
328.258
328.508
328.605
328.789
328.604
328.516
328.283
328.028
327.636
327.115
326.549
326.222
325.67
324.934
318.247
318.642
319.141
319.271
319.797
319.983
320.211
320.344
320.464
320.586
320.434
320.386
320.184
320.011
319.726
319.377
318.944
318.736
318.361
317.841
310.964
311.213
311.466
311.542
311.921
312.013
312.164
312.188
312.316
312.386
312.24
312.229
312.125
312.003
311.832
311.632
311.365
311.234
311.005
310.687
303.661
303.746
303.853
303.862
303.985
304.041
304.113
304.07
304.143
304.147
304.097
304.077
304.07
304.03
303.964
303.888
303.802
303.755
303.696
303.568
354.711
356.075
357.284
358.133
359.538
360.143
360.783
361.38
361.451
361.777
361.681
361.263
360.896
360.237
359.672
358.545
357.526
356.17
355.064
353.63
347.479
348.673
349.699
350.37
351.653
352.198
352.731
353.258
353.263
353.581
353.511
353.126
352.787
352.232
351.761
350.789
349.87
348.692
347.762
346.53
340.225
341.23
342.105
342.662
343.754
344.186
344.647
345.064
345.083
345.299
345.28
344.957
344.71
344.213
343.8
343.017
342.174
341.232
340.426
339.408
332.938
333.755
334.489
334.905
335.786
336.176
336.604
336.886
336.864
337.072
337.039
336.786
336.595
336.152
335.841
335.199
334.511
333.761
333.089
332.23
325.621
326.258
326.867
327.112
327.817
328.119
328.499
328.72
328.643
328.875
328.778
328.617
328.451
328.095
327.882
327.348
326.858
326.277
325.72
325.121
318.342
318.758
319.213
319.387
319.86
320.113
320.356
320.513
320.476
320.694
320.561
320.44
320.343
320.052
319.907
319.544
319.181
318.811
318.369
317.958
311.021
311.239
311.546
311.67
311.891
312.068
312.216
312.321
312.294
312.489
312.343
312.287
312.202
312.032
311.973
311.713
311.51
311.304
311.025
310.78
303.712
303.74
303.882
303.923
303.982
304.054
304.094
304.147
304.12
304.198
304.119
304.123
304.093
304.019
304.042
303.928
303.862
303.8
303.697
303.618
354.923
356.225
357.69
358.43
359.458
360.296
361.219
361.53
361.57
362.084
361.856
361.556
361.228
360.593
359.989
358.797
357.646
356.512
355.242
353.791
347.708
348.825
350.039
350.649
351.587
352.313
353.111
353.384
353.34
353.849
353.651
353.363
353.087
352.536
352.017
350.968
349.96
348.99
347.913
346.727
340.501
341.362
342.346
342.877
343.708
344.242
344.95
345.19
345.116
345.598
345.403
345.136
344.927
344.486
344.038
343.176
342.266
341.466
340.537
339.591
333.184
333.904
334.677
335.082
335.841
336.154
336.79
337.001
336.901
337.338
337.139
336.971
336.802
336.416
336.105
335.337
334.599
333.908
333.171
332.401
325.813
326.398
326.979
327.289
327.876
328.072
328.594
328.797
328.691
329.087
328.893
328.782
328.618
328.351
328.116
327.47
326.9
326.388
325.826
325.223
318.44
318.833
319.279
319.502
319.958
320.06
320.429
320.574
320.48
320.793
320.643
320.589
320.454
320.245
320.093
319.619
319.192
318.834
318.487
318.045
311.099
311.307
311.607
311.721
311.992
312.059
312.289
312.351
312.309
312.504
312.37
312.347
312.306
312.165
312.084
311.778
311.489
311.29
311.095
310.846
303.719
303.789
303.892
303.929
304.041
304.034
304.118
304.142
304.122
304.2
304.143
304.118
304.128
304.094
304.037
303.96
303.851
303.77
303.72
303.629
354.97
356.277
357.677
358.779
359.554
360.393
361.416
361.402
361.823
362.083
362.043
361.374
361.255
360.653
359.967
358.855
357.593
356.713
355.229
353.88
347.722
348.87
350.004
350.96
351.626
352.339
353.285
353.231
353.635
353.829
353.776
353.221
353.105
352.557
352.023
351.015
349.886
349.179
347.909
346.74
340.466
341.39
342.31
343.148
343.699
344.325
345.144
345.02
345.393
345.577
345.519
345.06
344.947
344.478
344.026
343.167
342.247
341.638
340.565
339.602
333.129
333.879
334.644
335.355
335.746
336.28
336.978
336.823
337.166
337.315
337.263
336.891
336.826
336.37
336.053
335.306
334.603
334.028
333.264
332.438
325.797
326.388
326.936
327.458
327.788
328.278
328.75
328.694
328.905
329.074
329.015
328.713
328.684
328.236
328.104
327.454
326.897
326.457
325.907
325.195
318.449
318.921
319.195
319.59
319.853
320.245
320.55
320.486
320.655
320.806
320.758
320.528
320.501
320.163
320.118
319.631
319.232
318.886
318.518
317.984
311.065
311.412
311.524
311.735
311.915
312.153
312.336
312.276
312.407
312.503
312.47
312.324
312.36
312.091
312.109
311.819
311.523
311.335
311.13
310.803
303.722
303.825
303.879
303.923
303.994
304.055
304.155
304.101
304.14
304.178
304.183
304.128
304.156
304.044
304.043
303.965
303.865
303.783
303.726
303.604
355.09
356.202
357.757
359.014
359.755
360.592
361.381
361.596
361.874
362.245
361.989
361.495
361.369
360.674
360.185
358.974
357.888
356.636
355.17
354.115
347.829
348.773
350.165
351.222
351.851
352.546
353.231
353.423
353.704
353.987
353.746
353.299
353.24
352.629
352.18
351.15
350.227
349.066
347.796
346.937
340.537
341.324
342.538
343.403
343.895
344.456
345.045
345.204
345.499
345.725
345.499
345.106
345.072
344.544
344.163
343.363
342.515
341.529
340.468
339.678
333.18
333.843
334.852
335.542
335.941
336.382
336.847
336.985
337.244
337.418
337.285
336.931
336.907
336.414
336.118
335.505
334.805
333.969
333.124
332.448
325.847
326.367
327.148
327.652
327.993
328.337
328.67
328.772
328.984
329.125
329.056
328.767
328.718
328.307
328.063
327.63
327.095
326.462
325.741
325.246
318.471
318.868
319.419
319.759
320.044
320.258
320.463
320.558
320.704
320.814
320.776
320.574
320.495
320.212
320.067
319.768
319.39
318.911
318.399
318.053
311.097
311.323
311.652
311.851
312.014
312.175
312.278
312.363
312.438
312.531
312.504
312.373
312.286
312.144
312.008
311.892
311.65
311.362
311.044
310.845
303.719
303.795
303.921
303.966
304.013
304.098
304.116
304.137
304.187
304.22
304.201
304.165
304.121
304.075
303.997
303.993
303.907
303.83
303.705
303.634
355.185
356.364
357.782
358.962
359.95
360.768
361.271
361.852
362.119
362.143
362.106
361.637
361.458
360.687
360.018
359.266
358.248
356.485
355.19
353.839
347.869
348.918
350.17
351.179
352.019
352.672
353.184
353.671
353.901
353.879
353.918
353.506
353.331
352.649
352.1
351.394
350.534
348.956
347.88
346.719
340.561
341.428
342.507
343.335
344.024
344.585
345.022
345.468
345.676
345.606
345.7
345.345
345.15
344.572
344.163
343.493
342.802
341.492
340.523
339.596
333.218
333.931
334.84
335.437
336.026
336.455
336.857
337.233
337.384
337.335
337.419
337.181
336.98
336.498
336.172
335.605
335.038
333.955
333.164
332.406
325.895
326.417
327.172
327.55
328.017
328.348
328.656
328.952
329.11
329.063
329.112
328.964
328.8
328.444
328.183
327.743
327.241
326.428
325.755
325.223
318.519
318.901
319.439
319.722
319.95
320.275
320.481
320.7
320.814
320.759
320.796
320.736
320.652
320.363
320.134
319.869
319.465
318.9
318.377
318.024
311.091
311.347
311.694
311.854
311.964
312.194
312.302
312.438
312.488
312.44
312.51
312.45
312.435
312.215
312.119
311.972
311.708
311.334
310.968
310.828
303.712
303.79
303.921
303.988
304.005
304.082
304.12
304.154
304.164
304.168
304.198
304.161
304.188
304.103
304.08
304.012
303.928
303.788
303.682
303.627
)
;

boundaryField
{
    hotSide
    {
        type            fixedGradient;
        gradient        nonuniform List<scalar> 
400
(
442.288
455.464
468.237
480.552
492.351
503.579
514.184
524.114
533.32
541.756
549.379
556.149
562.03
566.992
571.008
574.055
576.117
577.181
577.24
576.292
453.806
467.364
480.51
493.187
505.336
516.902
527.829
538.064
547.557
556.26
564.128
571.122
577.204
582.342
586.507
589.678
591.837
592.969
593.07
592.135
464.119
478.022
491.507
504.513
516.981
528.854
540.074
550.587
560.341
569.289
577.383
584.582
590.848
596.148
600.453
603.739
605.989
607.188
607.329
606.41
473.166
487.377
501.163
514.462
527.215
539.361
550.843
561.605
571.595
580.761
589.058
596.443
602.876
608.323
612.755
616.148
618.482
619.744
619.925
619.024
480.897
495.375
509.423
522.978
535.979
548.364
560.075
571.055
581.251
590.61
599.086
606.633
613.214
618.792
623.338
626.826
629.238
630.557
630.778
629.896
487.272
501.976
516.245
530.016
543.225
555.813
567.718
578.884
589.255
598.779
607.407
615.095
621.803
627.495
632.14
635.712
638.191
639.564
639.82
638.958
492.263
507.148
521.595
535.54
548.919
561.671
573.734
585.051
595.565
605.224
613.978
621.782
628.596
634.382
639.11
642.754
645.292
646.711
647.001
646.16
495.847
510.868
525.449
539.526
553.034
565.911
578.095
589.527
600.151
609.914
618.766
626.661
633.557
639.419
644.213
647.914
650.502
651.96
652.28
651.459
498.013
513.124
527.795
541.96
555.555
568.516
580.782
592.293
602.994
612.829
621.749
629.708
636.664
642.58
647.424
651.169
653.794
655.284
655.63
654.828
498.756
513.911
528.626
542.835
556.474
569.478
581.787
593.341
604.083
613.958
622.917
630.914
637.905
643.854
648.729
652.503
655.155
656.669
657.036
656.253
498.079
513.232
527.945
542.154
555.793
568.8
581.113
592.672
603.42
613.303
622.27
630.277
637.279
643.24
648.128
651.916
654.583
656.112
656.496
655.729
495.994
511.096
525.762
539.926
553.524
566.492
578.769
590.295
601.014
610.872
619.818
627.807
634.795
640.747
645.63
649.416
652.086
653.623
654.017
653.266
492.515
507.522
522.095
536.171
549.684
562.572
574.774
586.231
596.886
606.686
615.581
623.524
630.475
636.395
641.254
645.024
647.684
649.219
649.62
648.881
487.669
502.534
516.97
530.913
544.299
557.067
569.156
580.506
591.063
600.773
609.586
617.458
624.346
630.215
635.031
638.769
641.409
642.933
643.334
642.608
481.484
496.162
510.417
524.186
537.405
550.013
561.95
573.159
583.583
593.172
601.875
609.648
616.451
622.246
627.002
630.694
633.301
634.807
635.203
634.486
473.998
488.447
502.479
516.031
529.043
541.452
553.202
564.234
574.493
583.93
592.495
600.144
606.838
612.54
617.219
620.85
623.413
624.892
625.279
624.57
465.255
479.433
493.201
506.498
519.263
531.438
542.964
553.786
563.85
573.105
581.505
589.006
595.569
601.158
605.744
609.3
611.809
613.254
613.626
612.924
455.308
469.174
482.639
495.643
508.126
520.031
531.301
541.881
551.718
560.765
568.974
576.304
582.715
588.173
592.65
596.119
598.563
599.967
600.321
599.624
444.215
457.733
470.859
483.533
495.7
507.301
518.283
528.591
538.175
546.987
554.981
562.117
568.357
573.668
578.021
581.392
583.763
585.118
585.451
584.758
432.044
445.178
457.93
470.243
482.061
493.328
503.992
514.001
523.305
531.858
539.616
546.539
552.59
557.738
561.954
565.216
567.504
568.807
569.115
568.426
)
;
    }
    coldSide
    {
        type            mixed;
        refValue        uniform 300;
        refGradient     uniform 0;
        valueFraction   uniform 0.991591;
        source          uniform 0;
        value           nonuniform List<scalar> 
400
(
300.025
300.025
300.025
300.026
300.027
300.028
300.028
300.028
300.029
300.029
300.03
300.03
300.03
300.031
300.031
300.031
300.031
300.031
300.031
300.031
300.025
300.025
300.026
300.027
300.027
300.028
300.028
300.029
300.029
300.03
300.031
300.031
300.031
300.031
300.032
300.031
300.032
300.032
300.032
300.032