/*--------------------------------*- C++ -*----------------------------------*\
| =========                 |                                                 |
| \\      /  F ield         | OpenFOAM: The Open Source CFD Toolbox           |
|  \\    /   O peration     | Version:  2212                                  |
|   \\  /    A nd           | Website:  www.openfoam.com                      |
|    \\/     M anipulation  |                                                 |
\*---------------------------------------------------------------------------*/
FoamFile
{
    version     2.0;
    format      ascii;
    arch        "LSB;label=32;scalar=64";
    class       volScalarField;
    location    "0";
    object      T;
}
// * * * * * * * * * * * * * * * * * * * * * * * * * * * * * * * * * * * * * //

dimensions      [0 0 0 1 0 0 0];

internalField   nonuniform List<scalar> 
3200
(
353
351.475
350.202
349.697
349.495
349.758
349.991
350.627
350.758
350.891
350.656
350.06
349.123
348.121
347.074
345.964
345.199
345.192
345.875
346.914
345.901
344.67
343.584
343.133
342.977
343.209
343.395
343.958
344.083
344.197
344.025
343.487
342.672
341.807
340.88
339.943
339.272
339.273
339.855
340.701
338.821
337.844
336.914
336.562
336.44
336.635
336.776
337.24
337.373
337.471
337.331
336.879
336.191
335.454
334.635
333.859
333.31
333.308
333.785
334.487
331.77
331.02
330.251
329.942
329.884
330.027
330.114
330.492
330.635
330.716
330.593
330.219
329.661
329.04
328.382
327.75
327.335
327.319
327.675
328.267
324.743
324.163
323.561
323.324
323.291
323.394
323.457
323.708
323.88
323.927
323.81
323.534
323.106
322.608
322.085
321.642
321.313
321.292
321.547
321.987
317.664
317.285
316.845
316.688
316.658
316.726
316.776
316.943
317.08
317.115
317.01
316.829
316.538
316.176
315.777
315.513
315.249
315.209
315.389
315.7
310.592
310.392
310.123
310.038
309.993
310.043
310.077
310.169
310.25
310.289
310.227
310.116
309.948
309.726
309.476
309.341
309.181
309.139
309.23
309.411
303.543
303.487
303.41
303.363
303.345
303.363
303.374
303.413
303.431
303.457
303.436
303.391
303.338
303.269
303.175
303.135
303.078
303.063
303.101
303.143
353.183
351.75
350.44
349.935
349.85
350.129
350.448
350.993
351.28
351.387
351.236
350.581
349.626
348.643
347.486
346.401
345.598
345.523
346.157
347.191
346.079
344.923
343.798
343.331
343.277
343.518
343.759
344.272
344.533
344.588
344.469
343.938
343.082
342.233
341.253
340.316
339.614
339.564
340.106
340.951
338.997
338.078
337.118
336.73
336.668
336.869
337.057
337.499
337.755
337.792
337.689
337.252
336.54
335.772
334.974
334.213
333.587
333.558
334.022
334.698
331.921
331.191
330.422
330.115
330.035
330.19
330.339
330.674
330.962
330.956
330.867
330.521
329.956
329.3
328.683
328.078
327.55
327.503
327.885
328.444
324.836
324.281
323.694
323.466
323.385
323.491
323.628
323.877
324.11
324.123
324.022
323.766
323.344
322.803
322.362
321.878
321.47
321.436
321.718
322.145
317.774
317.368
316.946
316.785
316.719
316.779
316.914
317.083
317.239
317.267
317.176
316.992
316.698
316.304
315.982
315.659
315.357
315.341
315.518
315.817
310.684
310.463
310.184
310.098
310.041
310.088
310.183
310.26
310.355
310.385
310.326
310.205
310.041
309.782
309.603
309.415
309.238
309.241
309.329
309.508
303.584
303.516
303.427
303.387
303.352
303.382
303.423
303.445
303.475
303.481
303.464
303.421
303.359
303.284
303.215
303.153
303.101
303.107
303.119
303.188
353.826
352.201
351.015
350.581
350.477
350.8
351.338
351.688
352.338
352.368
352.068
351.585
350.597
349.439
348.274
347.19
346.248
346.142
346.649
347.688
346.645
345.305
344.295
343.957
343.805
344.103
344.552
344.846
345.43
345.449
345.173
344.774
343.899
342.916
341.922
340.994
340.19
340.121
340.537
341.386
339.489
338.364
337.497
337.281
337.136
337.38
337.747
337.993
338.501
338.5
338.264
337.949
337.185
336.349
335.517
334.752
334.097
334.048
334.394
335.053
332.324
331.434
330.703
330.545
330.419
330.611
330.922
331.105
331.54
331.534
331.341
331.096
330.457
329.764
329.115
328.477
327.966
327.94
328.202
328.721
325.15
324.482
323.904
323.789
323.666
323.845
324.077
324.224
324.558
324.551
324.424
324.228
323.717
323.182
322.669
322.17
321.798
321.771
321.962
322.398
317.982
317.491
317.065
317.028
316.904
317.049
317.214
317.323
317.559
317.56
317.487
317.335
316.978
316.55
316.195
315.855
315.603
315.583
315.708
316.046
310.812
310.513
310.256
310.22
310.147
310.255
310.341
310.407
310.564
310.537
310.521
310.42
310.201
309.925
309.718
309.542
309.394
309.37
309.437
309.654
303.624
303.519
303.437
303.43
303.395
303.439
303.472
303.492
303.534
303.527
303.531
303.5
303.42
303.322
303.257
303.201
303.151
303.139
303.16
303.24
354.519
353.073
351.89
351.394
351.426
351.663
352.306
352.821
353.376
353.387
353.288
352.746
351.662
350.57
349.162
348.049
347.155
347.003
347.431
348.602
347.252
346.058
345.048
344.618
344.631
344.845
345.402
345.803
346.324
346.334
346.241
345.776
344.836
343.885
342.693
341.734
340.991
340.848
341.222
342.219
339.972
339.008
338.182
337.829
337.799
337.999
338.442
338.791
339.235
339.278
339.198
338.775
337.989
337.19
336.197
335.384
334.766
334.647
334.972
335.805
332.706
331.952
331.272
330.985
330.938
331.12
331.482
331.76
332.13
332.18
332.13
331.765
331.122
330.468
329.674
329.003
328.5
328.42
328.679
329.346
325.444
324.872
324.329
324.107
324.066
324.212
324.524
324.721
325.015
325.048
325.011
324.719
324.238
323.721
323.112
322.6
322.187
322.148
322.353
322.866
318.174
317.777
317.408
317.22
317.155
317.294
317.541
317.664
317.866
317.897
317.875
317.666
317.353
316.951
316.54
316.167
315.842
315.85
315.997
316.358
310.92
310.681
310.461
310.348
310.293
310.389
310.55
310.613
310.708
310.736
310.753
310.622
310.425
310.196
309.925
309.73
309.514
309.538
309.613
309.826
303.659
303.583
303.509
303.472
303.449
303.472
303.537
303.555
303.589
303.588
303.596
303.57
303.5
303.422
303.314
303.259
303.189
303.195
303.217
303.297
355.551
354.1
353.005
352.431
352.503
352.819
353.509
354.117
354.591
354.868
354.689
354.057
352.977
351.864
350.461
349.287
348.354
348.104
348.46
349.461
348.165
346.949
346.002
345.527
345.558
345.84
346.451
346.995
347.377
347.607
347.465
346.902
345.962
345.002
343.818
342.82
342.013
341.812
342.093
342.956
340.767
339.778
338.996
338.592
338.593
338.833
339.375
339.842
340.136
340.323
340.21
339.743
338.931
338.134
337.133
336.307
335.619
335.471
335.703
336.415
333.351
332.587
331.957
331.628
331.611
331.798
332.263
332.63
332.875
333.006
332.94
332.589
331.899
331.242
330.427
329.742
329.195
329.112
329.276
329.863
325.941
325.364
324.887
324.646
324.634
324.742
325.116
325.405
325.611
325.693
325.659
325.39
324.812
324.312
323.707
323.174
322.736
322.713
322.829
323.245
318.523
318.137
317.811
317.622
317.607
317.678
317.949
318.157
318.325
318.367
318.364
318.157
317.719
317.388
316.953
316.6
316.249
316.262
316.365
316.61
311.118
310.908
310.7
310.593
310.58
310.603
310.786
310.921
311.001
311.032
311.028
310.92
310.641
310.455
310.184
309.985
309.751
309.775
309.86
309.974
303.719
303.654
303.584
303.559
303.546
303.552
303.607
303.67
303.686
303.696
303.699
303.654
303.566
303.499
303.414
303.347
303.277
303.278
303.307
303.343
356.657
355.376
354.314
353.851
353.886
354.143
354.788
355.597
355.92
356.24
356.25
355.562
354.616
353.305
351.913
350.727
349.845
349.533
349.831
350.723
349.104
348.043
347.126
346.746
346.77
346.991
347.546
348.252
348.52
348.782
348.816
348.225
347.407
346.278
345.096
344.086
343.28
343.071
343.305
344.024
341.552
340.717
339.921
339.615
339.631
339.815
340.275
340.89
341.119
341.316
341.351
340.841
340.17
339.212
338.263
337.389
336.694
336.555
336.711
337.292
333.996
333.354
332.685
332.468
332.457
332.62
332.961
333.491
333.681
333.831
333.851
333.439
332.914
332.139
331.383
330.643
330.068
329.97
330.078
330.549
326.447
325.981
325.452
325.271
325.279
325.367
325.634
326.079
326.231
326.32
326.355
326.034
325.654
325.044
324.466
323.875
323.428
323.374
323.424
323.794
318.898
318.572
318.193
318.068
318.091
318.132
318.304
318.642
318.773
318.823
318.848
318.626
318.338
317.906
317.505
317.084
316.768
316.708
316.779
317.023
311.354
311.165
310.935
310.85
310.874
310.885
310.993
311.191
311.294
311.309
311.327
311.19
311.007
310.766
310.526
310.263
310.078
310.032
310.095
310.238
303.807
303.744
303.668
303.635
303.641
303.645
303.684
303.755
303.791
303.792
303.799
303.745
303.692
303.613
303.523
303.442
303.386
303.369
303.385
303.43
358.118
356.874
355.829
355.342
355.376
355.67
356.251
357.034
357.463
357.872
357.768
357.096
356.209
355.026
353.601
352.251
351.439
351.084
351.427
352.121
350.361
349.349
348.452
348.029
348.07
348.296
348.835
349.501
349.865
350.219
350.116
349.558
348.795
347.757
346.568
345.37
344.672
344.392
344.668
345.243
342.618
341.79
341.069
340.682
340.732
340.898
341.354
341.905
342.223
342.541
342.469
341.984
341.354
340.453
339.496
338.462
337.881
337.654
337.876
338.334
334.888
334.211
333.646
333.322
333.369
333.491
333.871
334.316
334.543
334.842
334.792
334.375
333.897
333.127
332.38
331.548
331.055
330.886
331.046
331.416
327.159
326.629
326.198
325.955
325.98
326.075
326.379
326.716
326.884
327.134
327.089
326.768
326.368
325.788
325.255
324.597
324.215
324.076
324.209
324.48
319.431
319.038
318.75
318.569
318.573
318.655
318.869
319.114
319.199
319.415
319.368
319.145
318.838
318.436
318.073
317.598
317.314
317.23
317.345
317.524
311.695
311.437
311.258
311.185
311.149
311.202
311.332
311.485
311.546
311.683
311.628
311.509
311.323
311.078
310.888
310.576
310.415
310.35
310.432
310.545
303.923
303.84
303.767
303.75
303.732
303.751
303.798
303.848
303.869
303.91
303.907
303.861
303.797
303.706
303.654
303.56
303.494
303.464
303.501
303.534
359.663
358.427
357.408
356.935
356.813
357.222
357.738
358.533
359.05
359.489
359.317
358.684
357.852
356.687
355.201
353.892
353.123
352.7
353.012
353.78
351.725
350.678
349.81
349.443
349.297
349.652
350.101
350.795
351.248
351.602
351.461
350.908
350.227
349.226
347.942
346.822
346.145
345.781
346.038
346.691
343.78
342.904
342.192
341.895
341.758
342.059
342.428
343.028
343.434
343.722
343.59
343.107
342.549
341.719
340.649
339.688
339.127
338.844
339.025
339.594
335.822
335.113
334.55
334.306
334.185
334.449
334.726
335.248
335.57
335.807
335.697
335.316
334.834
334.187
333.312
332.537
332.069
331.854
331.988
332.463
327.88
327.316
326.895
326.697
326.606
326.795
327.007
327.446
327.694
327.894
327.784
327.501
327.099
326.632
325.928
325.336
324.976
324.827
324.924
325.295
319.935
319.522
319.225
319.085
319.043
319.143
319.312
319.644
319.801
319.952
319.873
319.685
319.375
319.042
318.539
318.112
317.853
317.754
317.825
318.077
311.977
311.73
311.559
311.468
311.448
311.507
311.601
311.809
311.905
311.978
311.927
311.83
311.645
311.416
311.133
310.889
310.711
310.658
310.704
310.861
304.009
303.932
303.879
303.85
303.845
303.861
303.899
303.958
303.991
304.008
303.999
303.956
303.908
303.828
303.737
303.651
303.598
303.576
303.598
303.625
361.415
360.054
359.142
358.588
358.528
358.789
359.233
360.082
360.646
361.012
361.011
360.516
359.394
358.138
356.694
355.63
354.841
354.601
354.681
355.383
353.246
352.101
351.337
350.845
350.793
351.014
351.409
352.156
352.634
352.928
352.94
352.522
351.533
350.502
349.232
348.316
347.645
347.453
347.507
348.08
345.08
344.154
343.497
343.091
343.03
343.219
343.56
344.218
344.604
344.823
344.854
344.48
343.663
342.801
341.75
340.994
340.415
340.272
340.309
340.773
336.926
336.163
335.629
335.304
335.243
335.397
335.678
336.227
336.539
336.706
336.743
336.44
335.751
335.07
334.211
333.621
333.131
333.044
333.04
333.423
328.742
328.161
327.729
327.47
327.414
327.563
327.749
328.181
328.46
328.565
328.629
328.374
327.831
327.31
326.635
326.196
325.809
325.738
325.751
326.042
320.556
320.127
319.801
319.63
319.597
319.716
319.837
320.144
320.358
320.42
320.47
320.294
319.894
319.504
319.058
318.74
318.462
318.42
318.43
318.622
312.342
312.082
311.879
311.78
311.768
311.848
311.923
312.101
312.242
312.273
312.291
312.213
311.949
311.713
311.458
311.267
311.081
311.07
311.075
311.189
304.135
304.043
303.976
303.952
303.945
303.97
303.991
304.064
304.104
304.119
304.12
304.102
303.997
303.92
303.833
303.769
303.704
303.699
303.707
303.751
363.147
361.852
360.903
360.255
360.286
360.41
360.975
361.633
362.25
362.409
362.556
362.03
361.049
359.788
358.472
357.394
356.636
356.363
356.559
357.112
354.742
353.664
352.84
352.29
352.319
352.418
352.917
353.481
354.044
354.141
354.289
353.832
352.99
351.92
350.777
349.849
349.205
348.958
349.138
349.57
346.335
345.435
344.745
344.291
344.315
344.41
344.837
345.32
345.78
345.885
345.988
345.61
344.899
344.005
343.034
342.264
341.712
341.514
341.668
342.002
337.927
337.196
336.627
336.274
336.285
336.385
336.705
337.116
337.489
337.585
337.67
337.374
336.783
336.036
335.261
334.645
334.181
334.041
334.167
334.436
329.518
328.954
328.515
328.225
328.253
328.335
328.545
328.9
329.2
329.267
329.328
329.093
328.614
328.056
327.461
326.969
326.621
326.515
326.622
326.829
321.11
320.702
320.396
320.177
320.205
320.274
320.411
320.666
320.889
320.924
320.985
320.795
320.455
320.051
319.646
319.275
319.061
318.977
319.049
319.179
312.694
312.443
312.256
312.111
312.143
312.179
312.26
312.407
312.579
312.559
312.612
312.5
312.294
312.064
311.804
311.586
311.442
311.415
311.466
311.519
304.255
304.162
304.114
304.061
304.079
304.083
304.116
304.162
304.217
304.202
304.228
304.194
304.127
304.044
303.952
303.886
303.848
303.838
303.847
303.859
365.048
363.673
362.709
362.02
361.965
362.143
362.638
363.079
363.578
363.903
364.052
363.542
362.601
361.396
360.182
359.184
358.528
358.19
358.383
358.954
356.412
355.219
354.4
353.816
353.792
353.924
354.365
354.763
355.162
355.437
355.593
355.166
354.35
353.315
352.255
351.399
350.842
350.543
350.723
351.188
347.739
346.791
346.063
345.587
345.594
345.655
346.051
346.397
346.726
346.947
347.103
346.732
346.079
345.184
344.298
343.58
343.118
342.852
342.997
343.404
339.064
338.313
337.689
337.329
337.347
337.369
337.71
338.011
338.265
338.445
338.566
338.26
337.753
337.01
336.283
335.718
335.355
335.116
335.25
335.59
330.407
329.801
329.325
329.062
329.085
329.06
329.35
329.616
329.778
329.936
330.022
329.797
329.405
328.801
328.254
327.823
327.576
327.359
327.471
327.722
321.745
321.303
320.962
320.776
320.781
320.754
320.971
321.197
321.297
321.408
321.468
321.314
321.026
320.587
320.181
319.902
319.728
319.591
319.649
319.816
313.045
312.789
312.582
312.494
312.477
312.462
312.576
312.76
312.81
312.855
312.895
312.803
312.628
312.376
312.131
311.958
311.852
311.791
311.805
311.906
304.369
304.293
304.208
304.197
304.182
304.183
304.207
304.27
304.293
304.311
304.336
304.3
304.235
304.151
304.068
304.003
303.977
303.95
303.961
303.993
366.765
365.6
364.572
363.878
363.821
363.809
364.256
364.735
365.192
365.407
365.436
365.003
364.111
363.019
361.856
360.889
360.269
359.99
360.295
360.887
357.877
356.893
356.026
355.436
355.38
355.366
355.762
356.18
356.558
356.754
356.805
356.455
355.656
354.715
353.713
352.898
352.378
352.121
352.38
352.871
348.985
348.181
347.458
346.957
346.912
346.91
347.215
347.598
347.888
348.058
348.148
347.85
347.196
346.386
345.515
344.88
344.443
344.191
344.443
344.821
340.075
339.439
338.869
338.457
338.424
338.42
338.667
338.997
339.221
339.332
339.431
339.194
338.668
338.013
337.281
336.816
336.458
336.24
336.43
336.738
331.181
330.683
330.261
329.957
329.911
329.911
330.118
330.376
330.553
330.622
330.713
330.524
330.104
329.605
329.032
328.69
328.42
328.248
328.385
328.636
322.291
321.952
321.633
321.433
321.395
321.369
321.548
321.718
321.847
321.886
321.96
321.833
321.51
321.168
320.747
320.535
320.343
320.215
320.307
320.505
313.393
313.196
313.015
312.877
312.859
312.851
312.952
313.059
313.13
313.176
313.199
313.107
312.916
312.713
312.464
312.349
312.247
312.153
312.198
312.325
304.484
304.433
304.369
304.323
304.316
304.309
304.337
304.387
304.405
304.413
304.422
304.404
304.327
304.265
304.175
304.138
304.101
304.067
304.089
304.122
368.493
367.403
366.437
365.947
365.68
365.624
366.038
366.271
366.601
366.934
366.827
366.336
365.54
364.494
363.471
362.74
362.135
361.861
362.131
362.744
359.376
358.486
357.629
357.22
357.014
356.945
357.307
357.526
357.822
358.102
358.018
357.572
356.922
355.989
355.09
354.528
354.004
353.744
353.966
354.5
350.246
349.535
348.792
348.459
348.317
348.235
348.531
348.723
348.983
349.214
349.165
348.798
348.23
347.452
346.683
346.257
345.814
345.573
345.752
346.218
341.107
340.566
339.943
339.666
339.592
339.525
339.728
339.932
340.111
340.289
340.28
339.98
339.488
338.878
338.225
337.929
337.575
337.361
337.503
337.893
331.963
331.578
331.083
330.85
330.833
330.796
330.912
331.134
331.213
331.36
331.392
331.131
330.74
330.275
329.745
329.573
329.272
329.128
329.212
329.53
322.832
322.585
322.23
322.052
322.056
322.046
322.097
322.294
322.305
322.411
322.457
322.263
321.976
321.643
321.276
321.155
320.921
320.845
320.898
321.126
313.702
313.589
313.377
313.25
313.244
313.254
313.294
313.423
313.391
313.462
313.497
313.383
313.197
313.021
312.784
312.708
312.588
312.545
312.552
312.702
304.59
304.548
304.489
304.438
304.443
304.452
304.464
304.506
304.483
304.507
304.525
304.487
304.414
304.374
304.283
304.246
304.225
304.203
304.212
304.269
370.393
369.361
368.293
367.762
367.43
367.34
367.638
367.902
368.063
368.449
368.183
367.624
367.062
366.076
365.136
364.489
363.949
363.764
364.082
364.714
361.007
360.161
359.241
358.817
358.52
358.443
358.732
358.953
359.084
359.445
359.175
358.715
358.228
357.386
356.587
356.014
355.574
355.409
355.687
356.197
351.637
350.935
350.178
349.816
349.59
349.526
349.774
349.957
350.083
350.384
350.143
349.774
349.338
348.631
347.984
347.481
347.129
346.987
347.236
347.646
342.252
341.698
341.092
340.771
340.612
340.574
340.784
340.939
341.049
341.274
341.079
340.781
340.42
339.827
339.32
338.925
338.605
338.511
338.727
339.025
332.851
332.46
332.006
331.715
331.619
331.587
331.759
331.906
331.978
332.135
331.984
331.75
331.472
330.994
330.616
330.316
330.065
330.002
330.161
330.381
323.456
323.213
322.905
322.674
322.602
322.592
322.68
322.831
322.858
322.97
322.883
322.714
322.511
322.147
321.878
321.682
321.482
321.468
321.566
321.739
314.103
313.95
313.759
313.619
313.581
313.571
313.63
313.723
313.728
313.804
313.757
313.645
313.525
313.283
313.136
313.029
312.907
312.899
312.971
313.074
304.725
304.668
304.607
304.564
304.561
304.564
304.567
304.604
304.606
304.622
304.609
304.581
304.528
304.456
304.395
304.364
304.333
304.328
304.353
304.381
372.25
371.337
370.278
369.59
369.203
369.176
369.198
369.396
369.546
369.624
369.541
369.149
368.478
367.663
366.757
366.208
365.787
365.526
366.109
366.572
362.627
361.878
360.982
360.369
360.043
360.014
360.065
360.244
360.388
360.477
360.374
360.02
359.455
358.742
358.003
357.516
357.138
356.929
357.443
357.833
353.005
352.382
351.657
351.105
350.859
350.843
350.885
351.052
351.188
351.275
351.162
350.871
350.383
349.778
349.188
348.755
348.424
348.284
348.695
349.04
343.397
342.873
342.301
341.822
341.662
341.631
341.679
341.823
341.941
342.023
341.908
341.681
341.285
340.766
340.301
339.949
339.665
339.579
339.915
340.186
333.782
333.367
332.926
332.538
332.431
332.399
332.461
332.575
332.673
332.734
332.642
332.446
332.15
331.718
331.377
331.102
330.905
330.829
331.084
331.29
324.163
323.859
323.545
323.252
323.198
323.158
323.207
323.302
323.355
323.417
323.358
323.202
322.999
322.659
322.451
322.236
322.111
322.065
322.239
322.374
314.522
314.343
314.154
313.983
313.956
313.918
313.946
313.997
314.051
314.073
314.072
313.953
313.829
313.614
313.501
313.361
313.299
313.27
313.375
313.447
304.871
304.803
304.745
304.691
304.68
304.664
304.674
304.699
304.722
304.727
304.718
304.676
304.633
304.562
304.531
304.476
304.451
304.455
304.491
304.516
374.29
373.238
372.164
371.378
370.906
370.785
370.811
370.94
371.057
371.01
371.026
370.382
369.825
369.095
368.471
367.847
367.469
367.393
367.778
368.463
364.416
363.56
362.635
361.899
361.537
361.448
361.463
361.598
361.7
361.632
361.664
361.108
360.643
359.993
359.481
358.922
358.617
358.55
358.9
359.462
354.536
353.836
353.061
352.399
352.133
352.077
352.079
352.201
352.291
352.227
352.252
351.789
351.417
350.845
350.425
349.974
349.701
349.645
349.967
350.417
344.645
344.08
343.461
342.871
342.709
342.655
342.682
342.78
342.849
342.791
342.786
342.416
342.155
341.649
341.34
340.963
340.741
340.679
340.982
341.309
334.756
334.314
333.832
333.336
333.242
333.19
333.235
333.311
333.374
333.313
333.311
333.008
332.837
332.415
332.223
331.9
331.758
331.705
331.942
332.168
324.86
324.533
324.177
323.808
323.769
323.722
323.776
323.826
323.859
323.818
323.815
323.597
323.487
323.177
323.048
322.833
322.725
322.697
322.871
323.016
314.953
314.738
314.518
314.306
314.281
314.259
314.293
314.306
314.332
314.327
314.321
314.19
314.117
313.925
313.862
313.728
313.647
313.665
313.755
313.834
305.014
304.939
304.861
304.789
304.792
304.782
304.792
304.792
304.805
304.806
304.812
304.757
304.728
304.674
304.653
304.602
304.581
304.581
304.608
304.644
376.107
375.178
374.062
373.222
372.789
372.479
372.402
372.448
372.644
372.455
372.241
371.751
371.16
370.529
370.105
369.563
369.225
369.266
369.762
370.445
365.988
365.237
364.258
363.517
363.153
362.903
362.856
362.885
363.069
362.886
362.726
362.297
361.805
361.236
360.896
360.398
360.143
360.171
360.638
361.179
355.868
355.265
354.418
353.78
353.506
353.301
353.272
353.27
353.443
353.287
353.174
352.804
352.397
351.901
351.64
351.206
351.011
351.021
351.428
351.858
345.723
345.246
344.568
344.02
343.831
343.641
343.659
343.647
343.786
343.642
343.568
343.264
342.939
342.526
342.332
341.985
341.798
341.832
342.176
342.5
335.564
335.201
334.707
334.252
334.121
333.961
333.991
334
334.095
333.99
333.925
333.683
333.458
333.112
332.982
332.731
332.568
332.591
332.853
333.112
325.405
325.139
324.812
324.494
324.405
324.294
324.3
324.318
324.396
324.283
324.239
324.085
323.94
323.66
323.592
323.441
323.303
323.321
323.505
323.681
315.25
315.083
314.908
314.712
314.669
314.598
314.598
314.612
314.656
314.59
314.558
314.485
314.392
314.215
314.174
314.102
313.989
314.027
314.127
314.233
305.115
305.053
305
304.929
304.92
304.887
304.897
304.903
304.92
304.896
304.885
304.865
304.83
304.765
304.758
304.728
304.682
304.715
304.732
304.768
377.912
376.893
375.863
374.992
374.361
374.124
373.976
373.958
373.955
373.704
373.587
373.065
372.618
372.07
371.558
371.146
371.009
371.121
371.473
372.216
367.541
366.708
365.808
365.053
364.519
364.308
364.176
364.177
364.184
363.965
363.905
363.439
363.047
362.572
362.155
361.793
361.687
361.784
362.086
362.68
357.185
356.489
355.728
355.081
354.661
354.487
354.329
354.37
354.366
354.214
354.167
353.775
353.413
353.045
352.698
352.405
352.298
352.388
352.65
353.123
346.806
346.255
345.624
345.086
344.768
344.644
344.5
344.526
344.544
344.411
344.378
344.07
343.768
343.469
343.198
342.953
342.86
342.911
343.181
343.535
336.421
336.02
335.499
335.083
334.838
334.774
334.663
334.656
334.703
334.589
334.571
334.32
334.081
333.851
333.668
333.47
333.398
333.411
333.66
333.917
326.027
325.741
325.366
325.081
324.917
324.875
324.798
324.748
324.822
324.731
324.742
324.54
324.385
324.197
324.106
323.943
323.886
323.904
324.099
324.274
315.629
315.459
315.229
315.063
314.978
314.951
314.906
314.853
314.926
314.856
314.861
314.756
314.646
314.543
314.485
314.393
314.36
314.362
314.502
314.595
305.245
305.184
305.105
305.053
305.021
305.014
304.997
304.979
305
304.988
304.982
304.953
304.909
304.883
304.856
304.836
304.811
304.814
304.863
304.888
379.59
378.557
377.609
376.651
376.045
375.651
375.525
375.391
375.305
375.111
374.853
374.466
373.956
373.484
373.014
372.659
372.631
372.765
373.132
373.941
368.977
368.104
367.311
366.472
365.96
365.634
365.505
365.422
365.347
365.186
364.99
364.637
364.219
363.759
363.399
363.108
363.08
363.191
363.496
364.209
358.336
357.649
356.989
356.288
355.871
355.579
355.459
355.428
355.359
355.221
355.081
354.777
354.428
354.022
353.734
353.493
353.444
353.56
353.824
354.44
347.721
347.179
346.661
346.088
345.754
345.51
345.399
345.399
345.359
345.236
345.141
344.881
344.582
344.265
344.016
343.842
343.775
343.894
344.099
344.626
337.118
336.709
336.323
335.89
335.609
335.437
335.336
335.335
335.337
335.223
335.165
334.955
334.713
334.477
334.266
334.166
334.088
334.209
334.359
334.765
326.51
326.257
325.966
325.662
325.455
325.349
325.252
325.264
325.26
325.203
325.148
324.997
324.82
324.64
324.515
324.444
324.366
324.474
324.58
324.893
315.914
315.767
315.608
315.424
315.278
315.25
315.173
315.174
315.179
315.153
315.113
315.022
314.928
314.786
314.724
314.693
314.645
314.713
314.772
314.965
305.33
305.281
305.239
305.17
305.113
305.115
305.088
305.087
305.092
305.089
305.07
305.035
305.01
304.959
304.931
304.932
304.906
304.926
304.957
305.019
380.862
379.757
378.868
377.957
377.272
376.836
376.545
376.469
376.339
376.055
375.871
375.479
374.989
374.598
374.137
373.801
373.664
374.009
374.561
375.351
370.012
369.115
368.333
367.567
366.968
366.61
366.383
366.314
366.218
365.959
365.813
365.477
365.044
364.713
364.325
364.03
363.891
364.206
364.682
365.373
359.186
358.469
357.82
357.186
356.692
356.381
356.208
356.143
356.074
355.858
355.738
355.455
355.046
354.817
354.512
354.245
354.083
354.383
354.787
355.38
348.395
347.834
347.298
346.797
346.42
346.164
346.006
345.946
345.924
345.742
345.65
345.405
345.049
344.898
344.667
344.436
344.272
344.552
344.856
345.357
337.655
337.202
336.796
336.391
336.134
335.955
335.783
335.769
335.741
335.619
335.53
335.352
335.052
334.952
334.774
334.593
334.459
334.68
334.905
335.293
326.906
326.598
326.289
326.002
325.818
325.711
325.572
325.592
325.542
325.463
325.386
325.288
325.039
324.973
324.867
324.711
324.641
324.792
324.937
325.221
316.163
315.991
315.806
315.602
315.513
315.437
315.346
315.389
315.35
315.295
315.235
315.186
315.029
315.001
314.945
314.827
314.808
314.891
314.985
315.163
305.414
305.361
305.294
305.23
305.212
305.168
305.142
305.153
305.149
305.137
305.11
305.089
305.037
305.037
305.013
304.968
304.967
304.993
305.025
305.079
)
;

boundaryField
{
    hotSide
    {
        type            fixedGradient;
        gradient        nonuniform List<scalar> 
400
(
567.359
568.708
573.29
581.023
591.593
604.55
619.409
635.727
653.135
671.345
690.138
709.354
728.88
748.643
768.596
788.719
809.006
829.466
850.106
870.934
543.676
545.281
550.343
558.762
570.16
584.001
599.73
616.859
634.99
653.823
673.137
692.774
712.631
732.64
752.768
773.007
793.364
813.861
834.519
855.353
528.522
530.675
536.248
545.129
556.941
571.153
587.211
604.622
622.984
641.991
661.42
681.112
700.965
720.92
740.95
761.054
781.252
801.572
822.044
842.692
521.358
524.331
530.459
539.627
551.512
565.655
581.565
598.785
616.929
635.691
654.846
674.234
693.754
713.349
733
752.715
772.517
792.442
812.524
832.793
520.044
523.99
530.751
540.205
552.083
566.011
581.572
598.363
616.025
634.265
652.861
671.657
690.559
709.52
728.529
747.606
766.784
786.104
805.607
825.328
522.145
527.122
534.612
544.482
556.491
570.317
585.599
601.972
619.104
636.717
654.602
672.619
690.689
708.789
726.931
745.155
763.508
782.045
800.814
819.854
525.668
531.678
539.987
550.443
562.809
576.778
592.006
608.14
624.852
641.874
659.01
676.147
693.244
710.318
727.422
744.628
762.011
779.64
797.573
815.855
529.096
536.09
545.264
556.448
569.39
583.773
599.229
615.378
631.87
648.42
664.846
681.075
697.123
713.075
729.043
745.146
761.492
778.17
795.246
812.766
531.239
539.09
549.089
561.051
574.709
589.711
605.644
622.064
638.556
654.798
670.609
685.969
700.98
715.814
730.663
745.699
761.064
776.861
793.162
810.01
531.162
539.628
550.274
562.909
577.251
592.916
609.436
626.284
642.954
659.06
674.417
689.064
703.202
717.103
731.035
745.22
759.822
774.955
790.688
807.06
528.212
536.929
547.886
560.894
575.661
591.784
608.75
625.973
642.871
659.002
674.172
688.461
702.143
715.557
729.02
742.782
757.019
771.849
787.339
803.523
522.129
530.652
541.482
554.428
569.192
585.362
602.416
619.758
636.803
653.1
668.449
682.923
696.786
710.371
723.994
737.907
752.29
767.264
782.902
799.24
513.155
521.045
531.322
543.793
558.155
573.997
590.813
608.049
625.172
641.775
657.652
672.819
687.458
701.832
716.206
730.809
745.82
761.363
777.52
794.338
502.066
508.974
518.399
530.15
543.921
559.302
575.811
592.938
610.211
627.265
643.884
660.021
675.759
691.268
706.744
722.379
738.336
754.743
771.692
789.238
490.153
495.859
504.296
515.285
528.51
543.545
559.906
577.101
594.686
612.313
629.755
646.912
663.795
680.496
697.15
713.91
730.922
748.315
766.184
784.593
479.243
483.648
491.098
501.424
514.281
529.194
545.635
563.093
581.12
599.366
617.593
635.671
653.566
671.319
689.025
706.81
724.807
743.145
761.925
781.213
471.781
474.904
481.441
491.234
503.878
518.816
535.449
553.221
571.669
590.441
609.292
628.078
646.744
665.304
683.828
702.424
721.222
740.354
759.927
780.007
470.725
472.736
478.456
487.735
500.114
514.959
531.609
549.48
568.101
587.122
606.301
625.491
644.625
663.699
682.768
701.928
721.302
741.025
761.205
781.907
478.705
479.932
484.915
493.519
505.289
519.594
535.778
553.267
571.603
590.444
609.553
628.781
648.049
667.341
686.692
706.182
725.919
746.023
766.595
787.687
496.502
497.31
501.625
509.337
520.074
533.3
548.449
565.004
582.543
600.742
619.366
638.261
657.337
676.561
695.945
715.545
735.44
755.719
776.457
797.69
)
;
    }
    coldSide
    {
        type            mixed;
        refValue        uniform 300;
        refGradient     uniform 0;
        valueFraction   uniform 0.991591;
        source          uniform 0;
        value           nonuniform List<scalar> 
400
(
300.03
300.03
300.03
300.031
300.031
300.032
300.033
300.034
300.035
300.036
300.037
300.038
300.039
300.04
300.041
300.042
300.043
300.044
300.045
300.046
300.029
300.03
300.03
300.03
300.031
300.031
300.032
300.033
300.034
300.035
300.036
300.037
300.038
300.039
300.04
300.042
300.042
300.044
300.044