/*--------------------------------*- C++ -*----------------------------------*\
| =========                 |                                                 |
| \\      /  F ield         | OpenFOAM: The Open Source CFD Toolbox           |
|  \\    /   O peration     | Version:  2212                                  |
|   \\  /    A nd           | Website:  www.openfoam.com                      |
|    \\/     M anipulation  |                                                 |
\*---------------------------------------------------------------------------*/
FoamFile
{
    version     2.0;
    format      ascii;
    arch        "LSB;label=32;scalar=64";
    class       volScalarField;
    location    "0";
    object      T;
}
// * * * * * * * * * * * * * * * * * * * * * * * * * * * * * * * * * * * * * //

dimensions      [0 0 0 1 0 0 0];

internalField   nonuniform List<scalar> 
3200
(
354.037
352.551
351.638
350.983
351.277
351.649
352.47
353.328
353.802
354.139
354.146
353.808
353.12
352.063
350.954
349.806
349.384
349.137
349.967
351.204
346.727
345.523
344.77
344.147
344.407
344.714
345.443
346.201
346.62
346.931
346.937
346.637
346.033
345.137
344.148
343.168
342.839
342.617
343.347
344.328
339.455
338.496
337.892
337.347
337.554
337.816
338.451
339.074
339.426
339.704
339.71
339.477
338.938
338.201
337.332
336.522
336.284
336.094
336.705
337.475
332.225
331.494
331.01
330.573
330.724
330.926
331.46
331.969
332.244
332.464
332.503
332.308
331.857
331.248
330.51
329.891
329.691
329.558
330.05
330.647
325.049
324.485
324.13
323.784
323.893
324.055
324.493
324.864
325.069
325.229
325.269
325.139
324.769
324.281
323.711
323.262
323.086
323.005
323.405
323.813
317.881
317.488
317.267
316.994
317.06
317.206
317.529
317.779
317.899
318.018
318.044
317.961
317.695
317.338
316.924
316.628
316.488
316.442
316.757
317.021
310.738
310.509
310.389
310.209
310.224
310.354
310.528
310.686
310.743
310.824
310.837
310.778
310.628
310.402
310.154
309.975
309.908
309.881
310.072
310.218
303.602
303.52
303.484
303.428
303.412
303.466
303.531
303.582
303.598
303.622
303.63
303.612
303.563
303.481
303.406
303.334
303.325
303.314
303.384
303.419
354.299
352.779
351.829
351.389
351.558
352.195
353.061
353.821
354.611
354.817
354.808
354.512
353.724
352.837
351.53
350.381
349.748
349.551
350.418
351.563
346.935
345.716
344.903
344.521
344.64
345.209
345.964
346.588
347.294
347.451
347.46
347.223
346.547
345.79
344.667
343.657
343.158
342.978
343.714
344.651
339.637
338.661
337.965
337.653
337.754
338.225
338.874
339.388
339.985
340.132
340.137
339.937
339.377
338.736
337.791
336.952
336.527
336.381
336.987
337.769
332.369
331.635
331.032
330.788
330.895
331.26
331.782
332.228
332.695
332.825
332.829
332.666
332.195
331.687
330.909
330.249
329.896
329.791
330.265
330.912
325.15
324.615
324.142
323.955
324.053
324.307
324.7
325.068
325.407
325.551
325.506
325.415
325.029
324.643
324.034
323.546
323.259
323.175
323.514
324.065
317.967
317.599
317.253
317.143
317.196
317.357
317.62
317.903
318.138
318.26
318.198
318.145
317.876
317.617
317.178
316.814
316.61
316.558
316.773
317.209
310.781
310.571
310.366
310.313
310.346
310.42
310.574
310.751
310.884
310.981
310.919
310.891
310.748
310.577
310.311
310.098
309.963
309.95
310.078
310.349
303.614
303.541
303.483
303.461
303.47
303.488
303.541
303.618
303.639
303.684
303.658
303.643
303.607
303.54
303.45
303.392
303.336
303.343
303.371
303.473
354.682
353.347
352.305
351.962
352.289
352.991
353.918
354.741
355.497
355.977
356.041
355.683
354.778
353.695
352.564
351.404
350.519
350.33
351.142
352.209
347.271
346.187
345.287
345.003
345.277
345.871
346.702
347.399
348.048
348.455
348.532
348.199
347.425
346.529
345.556
344.562
343.794
343.639
344.339
345.23
339.909
339.052
338.281
338.052
338.298
338.768
339.496
340.094
340.638
340.952
341.042
340.737
340.089
339.366
338.522
337.701
337.054
336.921
337.528
338.247
332.597
331.93
331.297
331.125
331.336
331.708
332.316
332.805
333.22
333.48
333.579
333.315
332.773
332.206
331.476
330.848
330.315
330.211
330.699
331.275
325.33
324.835
324.356
324.209
324.376
324.659
325.133
325.52
325.813
326.027
326.106
325.899
325.477
325.056
324.466
323.975
323.593
323.505
323.869
324.318
318.094
317.742
317.416
317.311
317.413
317.623
317.949
318.223
318.446
318.604
318.635
318.513
318.19
317.901
317.486
317.127
316.865
316.798
317.039
317.385
310.864
310.664
310.473
310.416
310.458
310.574
310.776
310.943
311.065
311.177
311.202
311.134
310.925
310.758
310.498
310.278
310.119
310.109
310.222
310.461
303.647
303.574
303.516
303.503
303.503
303.54
303.616
303.657
303.693
303.758
303.752
303.736
303.658
303.61
303.519
303.439
303.39
303.385
303.429
303.512
355.48
354.113
353.078
352.933
353.375
354.12
355.037
355.935
356.661
357.272
357.417
357
356.168
355.079
353.877
352.641
351.777
351.498
352.216
353.237
347.963
346.853
345.966
345.848
346.216
346.845
347.661
348.435
349.041
349.59
349.692
349.351
348.629
347.718
346.673
345.636
344.904
344.662
345.279
346.099
340.478
339.618
338.887
338.794
339.063
339.577
340.319
340.961
341.458
341.91
341.986
341.76
341.11
340.376
339.48
338.605
338.012
337.811
338.306
338.97
333.057
332.4
331.794
331.727
331.944
332.359
332.99
333.512
333.905
334.261
334.34
334.163
333.591
333.008
332.292
331.566
331.083
330.946
331.344
331.85
325.678
325.196
324.736
324.677
324.843
325.141
325.68
326.061
326.375
326.642
326.703
326.587
326.106
325.683
325.131
324.536
324.188
324.066
324.374
324.752
318.332
317.987
317.697
317.637
317.738
317.943
318.358
318.616
318.839
319.042
319.066
319.012
318.64
318.371
317.976
317.525
317.285
317.191
317.413
317.682
311.013
310.796
310.659
310.593
310.656
310.752
311.026
311.182
311.321
311.453
311.436
311.42
311.197
311.038
310.803
310.515
310.382
310.331
310.462
310.611
303.691
303.624
303.582
303.549
303.582
303.607
303.692
303.751
303.799
303.841
303.834
303.833
303.755
303.698
303.62
303.522
303.482
303.462
303.511
303.556
356.585
355.179
354.379
354.196
354.478
355.31
356.351
357.413
358.254
358.912
359.038
358.659
357.885
356.708
355.315
354.096
353.102
352.982
353.505
354.492
348.927
347.765
347.093
346.949
347.179
347.884
348.789
349.698
350.427
350.981
351.078
350.753
350.101
349.105
347.916
346.89
346.016
345.912
346.388
347.172
341.32
340.362
339.835
339.689
339.904
340.479
341.243
342.007
342.643
343.068
343.174
342.892
342.346
341.526
340.523
339.688
338.937
338.84
339.244
339.871
333.771
333.01
332.594
332.433
332.647
333.099
333.72
334.356
334.871
335.214
335.284
335.048
334.629
333.96
333.135
332.467
331.874
331.803
332.112
332.592
326.247
325.663
325.346
325.232
325.377
325.745
326.229
326.72
327.108
327.395
327.441
327.249
326.923
326.431
325.788
325.238
324.782
324.762
324.975
325.337
318.747
318.319
318.11
318.028
318.107
318.411
318.747
319.084
319.351
319.575
319.592
319.466
319.244
318.904
318.436
318.025
317.701
317.708
317.844
318.102
311.242
311
310.885
310.831
310.868
311.057
311.269
311.452
311.622
311.762
311.77
311.695
311.565
311.365
311.087
310.816
310.647
310.651
310.737
310.883
303.76
303.697
303.651
303.637
303.638
303.699
303.784
303.838
303.895
303.935
303.936
303.912
303.876
303.81
303.727
303.629
303.58
303.565
303.6
303.654
357.854
356.626
355.852
355.689
355.956
356.653
357.801
359.071
359.952
360.68
360.74
360.432
359.635
358.362
356.977
355.818
354.842
354.624
355.07
356.05
350.015
349.004
348.361
348.242
348.428
349.042
350.046
351.131
351.887
352.506
352.563
352.285
351.625
350.521
349.349
348.362
347.508
347.351
347.713
348.53
342.241
341.419
340.899
340.798
340.929
341.481
342.306
343.208
343.851
344.359
344.412
344.174
343.643
342.71
341.736
340.91
340.159
340.07
340.359
341.026
334.523
333.874
333.46
333.362
333.456
333.922
334.589
335.294
335.856
336.261
336.288
336.086
335.693
334.927
334.136
333.442
332.839
332.793
333.008
333.516
326.806
326.33
326.02
325.953
326.009
326.381
326.861
327.425
327.852
328.187
328.204
328.037
327.764
327.145
326.55
326.007
325.547
325.513
325.671
326.025
319.124
318.789
318.595
318.546
318.57
318.835
319.18
319.58
319.876
320.153
320.151
320.019
319.834
319.407
318.991
318.592
318.252
318.228
318.347
318.57
311.487
311.288
311.17
311.118
311.168
311.307
311.512
311.752
311.93
312.109
312.094
312.023
311.909
311.665
311.42
311.156
310.955
310.945
311.019
311.136
303.849
303.779
303.741
303.727
303.742
303.791
303.861
303.932
303.992
304.064
304.057
304.034
303.994
303.912
303.83
303.743
303.665
303.659
303.684
303.736
359.426
358.247
357.428
357.329
357.604
358.272
359.427
360.492
361.64
362.398
362.554
362.345
361.535
360.187
358.83
357.705
356.783
356.596
356.848
357.875
351.405
350.414
349.756
349.657
349.874
350.447
351.447
352.346
353.349
353.985
354.122
353.962
353.27
352.119
350.953
349.988
349.214
349.043
349.261
350.106
343.438
342.591
342.07
341.986
342.167
342.654
343.488
344.248
345.071
345.61
345.717
345.618
345.034
344.074
343.105
342.262
341.632
341.499
341.679
342.349
335.52
334.797
334.402
334.312
334.492
334.864
335.561
336.173
336.821
337.284
337.38
337.309
336.826
336.036
335.22
334.543
334.05
333.96
334.09
334.604
327.617
327.022
326.724
326.647
326.839
327.109
327.644
328.119
328.588
328.986
329.05
329.019
328.644
328.009
327.375
326.867
326.476
326.416
326.512
326.875
319.744
319.282
319.089
319.018
319.193
319.375
319.756
320.095
320.401
320.706
320.751
320.719
320.473
320.013
319.548
319.205
318.908
318.872
318.948
319.181
311.864
311.569
311.458
311.424
311.545
311.642
311.855
312.066
312.263
312.421
312.48
312.439
312.296
312.016
311.735
311.53
311.352
311.342
311.369
311.508
303.973
303.87
303.835
303.835
303.881
303.907
303.971
304.051
304.106
304.159
304.183
304.166
304.109
304.02
303.92
303.854
303.799
303.812
303.808
303.858
361.025
359.958
359.178
359.049
359.314
360.04
361.081
362.154
363.197
364.134
364.435
364.288
363.44
362.178
360.874
359.622
358.775
358.607
358.957
359.826
352.796
351.907
351.224
351.141
351.348
351.992
352.868
353.803
354.674
355.477
355.748
355.646
354.924
353.817
352.734
351.658
350.896
350.793
351.09
351.794
344.63
343.852
343.273
343.251
343.402
343.953
344.661
345.461
346.185
346.874
347.092
347.032
346.411
345.49
344.605
343.716
343.036
342.961
343.236
343.774
336.496
335.834
335.355
335.369
335.483
335.934
336.486
337.17
337.739
338.3
338.469
338.444
337.933
337.192
336.485
335.773
335.188
335.147
335.372
335.776
328.385
327.839
327.482
327.512
327.579
327.941
328.352
328.908
329.317
329.753
329.885
329.883
329.46
328.898
328.371
327.837
327.359
327.335
327.502
327.79
320.267
319.872
319.63
319.644
319.67
319.934
320.259
320.671
320.931
321.258
321.321
321.336
321.054
320.636
320.276
319.905
319.526
319.554
319.65
319.865
312.163
311.926
311.773
311.798
311.801
311.959
312.181
312.4
312.565
312.78
312.782
312.806
312.655
312.377
312.169
311.969
311.717
311.765
311.804
311.932
304.058
304
303.939
303.965
303.96
304.005
304.084
304.144
304.206
304.282
304.277
304.292
304.252
304.148
304.076
304.019
303.936
303.951
303.949
303.997
362.958
361.82
360.894
360.904
361.188
361.874
362.791
363.963
365.043
365.869
366.257
366.1
365.275
364.114
362.803
361.731
360.878
360.642
361.09
361.871
354.474
353.524
352.719
352.743
352.969
353.564
354.362
355.361
356.27
357.007
357.362
357.211
356.503
355.498
354.376
353.464
352.726
352.542
352.926
353.581
346.024
345.244
344.554
344.59
344.792
345.279
345.938
346.799
347.558
348.193
348.484
348.36
347.739
346.898
345.992
345.211
344.582
344.45
344.773
345.271
337.617
336.997
336.416
336.487
336.614
337.019
337.548
338.272
338.877
339.381
339.637
339.53
339.009
338.334
337.602
336.985
336.463
336.345
336.627
337.011
329.265
328.759
328.309
328.361
328.45
328.77
329.198
329.754
330.212
330.597
330.835
330.731
330.308
329.783
329.212
328.762
328.33
328.252
328.494
328.756
320.929
320.534
320.204
320.255
320.295
320.542
320.861
321.272
321.574
321.855
322.014
321.96
321.628
321.257
320.842
320.542
320.208
320.185
320.344
320.533
312.599
312.331
312.134
312.16
312.17
312.341
312.535
312.783
312.951
313.122
313.213
313.17
312.978
312.75
312.512
312.337
312.117
312.122
312.192
312.337
304.216
304.133
304.066
304.071
304.077
304.128
304.201
304.295
304.344
304.396
304.411
304.409
304.348
304.269
304.192
304.139
304.061
304.056
304.079
304.141
364.773
363.752
362.871
362.799
363.016
363.757
364.526
365.785
366.803
367.678
368.029
367.844
367.178
366.039
364.781
363.602
362.956
362.779
363.127
363.939
356.034
355.194
354.431
354.383
354.581
355.189
355.856
356.934
357.794
358.545
358.862
358.715
358.144
357.179
356.105
355.06
354.529
354.387
354.649
355.352
347.333
346.665
346.008
345.978
346.15
346.657
347.212
348.094
348.832
349.436
349.718
349.608
349.135
348.319
347.436
346.546
346.117
345.996
346.209
346.803
338.662
338.156
337.62
337.608
337.738
338.133
338.588
339.286
339.912
340.386
340.62
340.556
340.144
339.481
338.782
338.059
337.717
337.608
337.818
338.26
330.056
329.664
329.236
329.237
329.332
329.616
330.007
330.528
331.013
331.388
331.547
331.516
331.198
330.688
330.148
329.578
329.316
329.244
329.447
329.751
321.452
321.2
320.879
320.898
320.936
321.166
321.447
321.787
322.146
322.417
322.52
322.506
322.281
321.898
321.536
321.116
320.924
320.882
321.055
321.26
312.865
312.748
312.533
312.554
312.571
312.722
312.885
313.078
313.292
313.47
313.494
313.506
313.385
313.147
312.942
312.687
312.559
312.524
312.641
312.761
304.309
304.271
304.201
304.209
304.217
304.266
304.327
304.378
304.462
304.512
304.51
304.535
304.48
304.412
304.337
304.258
304.203
304.197
304.235
304.281
366.639
365.607
364.842
364.739
364.97
365.725
366.506
367.499
368.48
369.268
369.551
369.448
368.854
367.885
366.773
365.805
365.153
364.974
365.315
366.197
357.665
356.784
356.134
356.07
356.242
356.917
357.559
358.408
359.264
359.919
360.191
360.088
359.625
358.78
357.836
356.992
356.422
356.269
356.577
357.323
348.738
347.99
347.477
347.404
347.533
348.127
348.643
349.359
350.087
350.622
350.867
350.793
350.408
349.697
348.9
348.207
347.71
347.57
347.848
348.463
339.839
339.224
338.831
338.779
338.863
339.359
339.773
340.374
340.938
341.349
341.568
341.523
341.204
340.633
339.971
339.434
339.024
338.913
339.146
339.64
330.969
330.488
330.188
330.146
330.205
330.61
330.915
331.4
331.813
332.128
332.296
332.28
332.018
331.587
331.06
330.67
330.344
330.262
330.444
330.818
322.114
321.761
321.546
321.532
321.562
321.848
322.08
322.429
322.719
322.924
323.05
323.046
322.874
322.569
322.183
321.916
321.671
321.613
321.751
322.017
313.278
313.067
312.943
312.922
312.945
313.12
313.25
313.456
313.641
313.763
313.852
313.838
313.728
313.556
313.327
313.159
313.029
312.975
313.06
313.221
304.447
304.377
304.35
304.339
304.337
304.389
304.441
304.516
304.575
304.607
304.643
304.632
304.603
304.547
304.464
304.413
304.372
304.349
304.37
304.439
368.544
367.58
366.902
366.6
366.757
367.484
368.264
369.203
370.167
370.901
371.252
370.969
370.543
369.742
368.541
367.834
367.307
367.115
367.599
368.444
359.295
358.507
357.903
357.677
357.793
358.442
359.102
359.888
360.71
361.341
361.631
361.42
361.05
360.383
359.343
358.747
358.297
358.126
358.533
359.243
350.104
349.461
348.941
348.768
348.872
349.431
349.973
350.604
351.294
351.838
352.051
351.895
351.568
351.025
350.166
349.668
349.268
349.148
349.487
350.065
340.932
340.429
339.987
339.894
339.984
340.424
340.857
341.353
341.925
342.352
342.548
342.418
342.148
341.703
341.007
340.622
340.292
340.201
340.468
340.927
331.813
331.41
331.08
331.047
331.074
331.442
331.762
332.143
332.577
332.914
333.083
332.996
332.754
332.433
331.881
331.577
331.335
331.257
331.468
331.818
322.702
322.41
322.199
322.176
322.188
322.479
322.701
322.956
323.249
323.507
323.625
323.585
323.377
323.158
322.77
322.555
322.371
322.345
322.474
322.718
313.625
313.447
313.321
313.318
313.331
313.504
313.639
313.779
313.962
314.129
314.185
314.166
314.04
313.896
313.662
313.538
313.425
313.425
313.495
313.628
304.56
304.5
304.473
304.465
304.468
304.525
304.573
304.62
304.683
304.748
304.754
304.746
304.707
304.66
304.58
304.532
304.498
304.504
304.51
304.568
370.597
369.521
368.89
368.729
368.699
369.312
370.065
370.956
371.781
372.422
372.784
372.543
372.129
371.381
370.423
369.919
369.369
369.301
369.732
370.521
361.081
360.183
359.642
359.513
359.482
360.046
360.652
361.44
362.132
362.644
362.987
362.766
362.438
361.779
360.968
360.544
360.077
360.007
360.377
361.046
351.626
350.879
350.428
350.316
350.282
350.772
351.269
351.964
352.544
352.902
353.22
353.057
352.79
352.228
351.544
351.2
350.814
350.742
351.051
351.578
342.198
341.603
341.232
341.139
341.113
341.525
341.915
342.47
342.976
343.201
343.51
343.408
343.163
342.709
342.153
341.864
341.554
341.488
341.738
342.154
332.787
332.347
332.053
332.006
331.987
332.279
332.572
333.021
333.41
333.578
333.819
333.74
333.553
333.216
332.768
332.567
332.307
332.246
332.458
332.768
323.429
323.094
322.895
322.873
322.872
323.078
323.248
323.578
323.859
323.983
324.139
324.093
323.965
323.721
323.393
323.257
323.071
323.024
323.169
323.396
314.073
313.861
313.731
313.734
313.727
313.877
313.973
314.157
314.323
314.416
314.501
314.474
314.389
314.253
314.034
313.96
313.843
313.814
313.907
314.034
304.718
304.647
304.598
304.6
304.592
304.659
304.687
304.744
304.802
304.83
304.858
304.845
304.823
304.781
304.699
304.683
304.645
304.629
304.662
304.705
372.479
371.569
370.883
370.635
370.711
371.102
371.803
372.661
373.372
373.956
374.165
374.077
373.81
373.091
372.377
371.902
371.475
371.478
371.939
372.659
362.723
361.944
361.386
361.156
361.226
361.574
362.145
362.916
363.502
364.007
364.184
364.119
363.879
363.279
362.684
362.276
361.884
361.9
362.291
362.879
353.002
352.368
351.9
351.722
351.757
352.074
352.538
353.191
353.683
354.093
354.242
354.216
353.982
353.485
352.984
352.662
352.314
352.343
352.666
353.122
343.33
342.824
342.447
342.331
342.326
342.6
342.955
343.473
343.903
344.211
344.332
344.31
344.124
343.719
343.301
343.072
342.773
342.807
343.075
343.393
333.685
333.292
333.007
332.918
332.91
333.135
333.398
333.767
334.147
334.368
334.47
334.419
334.319
333.975
333.657
333.505
333.271
333.288
333.496
333.709
324.062
323.771
323.569
323.529
323.501
323.684
323.863
324.13
324.394
324.548
324.616
324.565
324.525
324.241
324.034
323.923
323.777
323.789
323.94
324.07
314.439
314.257
314.13
314.132
314.106
314.222
314.339
314.478
314.663
314.734
314.773
314.749
314.74
314.547
314.426
314.349
314.281
314.282
314.379
314.45
304.838
304.77
304.737
304.749
304.713
304.769
304.814
304.85
304.923
304.931
304.954
304.945
304.937
304.877
304.836
304.807
304.788
304.79
304.823
304.849
374.624
373.603
372.855
372.588
372.57
372.9
373.485
374.294
374.947
375.311
375.673
375.701
375.403
374.816
374.218
373.758
373.467
373.574
373.987
374.796
364.596
363.724
363.082
362.866
362.838
363.125
363.617
364.308
364.861
365.17
365.461
365.548
365.281
364.755
364.271
363.863
363.632
363.717
364.051
364.723
354.611
353.872
353.312
353.176
353.139
353.372
353.783
354.354
354.802
355.099
355.297
355.401
355.189
354.73
354.359
354.008
353.821
353.89
354.15
354.707
344.634
344.037
343.565
343.504
343.465
343.649
343.975
344.42
344.786
345.058
345.196
345.269
345.122
344.727
344.471
344.148
344.028
344.069
344.279
344.71
334.689
334.248
333.858
333.846
333.806
333.963
334.188
334.529
334.817
335.026
335.114
335.18
335.066
334.752
334.591
334.316
334.246
334.261
334.436
334.747
324.758
324.456
324.191
324.193
324.162
324.276
324.412
324.647
324.855
325.015
325.065
325.137
325.044
324.829
324.713
324.496
324.464
324.47
324.605
324.818
314.846
314.685
314.527
314.531
314.511
314.576
314.666
314.824
314.917
315.017
315.041
315.096
315.039
314.913
314.839
314.71
314.689
314.703
314.782
314.902
304.968
304.929
304.877
304.87
304.868
304.876
304.909
304.966
304.998
305.039
305.039
305.058
305.046
304.998
304.972
304.933
304.922
304.919
304.955
304.994
376.706
375.586
374.902
374.547
374.485
374.693
375.235
375.908
376.525
376.854
377.167
377.135
376.9
376.468
375.94
375.701
375.536
375.653
376.231
376.842
366.376
365.447
364.842
364.539
364.493
364.658
365.121
365.716
366.257
366.519
366.795
366.761
366.575
366.197
365.746
365.544
365.38
365.496
366.024
366.51
356.087
355.332
354.825
354.579
354.527
354.666
355.027
355.55
356.019
356.241
356.441
356.448
356.281
355.951
355.572
355.386
355.265
355.377
355.832
356.198
345.822
345.237
344.837
344.64
344.59
344.708
344.98
345.413
345.799
346.006
346.141
346.161
346.008
345.725
345.441
345.284
345.181
345.284
345.637
345.929
335.605
335.151
334.865
334.703
334.678
334.783
334.957
335.317
335.609
335.798
335.894
335.892
335.768
335.524
335.321
335.2
335.111
335.218
335.467
335.705
325.416
325.105
324.897
324.8
324.779
324.853
324.945
325.226
325.446
325.551
325.657
325.647
325.552
325.369
325.228
325.122
325.08
325.153
325.324
325.492
315.26
315.075
314.94
314.895
314.879
314.932
314.976
315.165
315.304
315.336
315.416
315.418
315.353
315.233
315.155
315.098
315.058
315.11
315.208
315.293
305.108
305.06
305.004
304.989
304.984
305.01
305.005
305.101
305.125
305.138
305.168
305.173
305.143
305.11
305.078
305.066
305.042
305.062
305.104
305.123
378.61
377.708
376.916
376.459
376.362
376.649
377.081
377.556
378.082
378.473
378.68
378.734
378.418
378.095
377.794
377.571
377.557
377.666
378.281
378.937
368.012
367.244
366.591
366.193
366.12
366.363
366.73
367.124
367.582
367.927
368.116
368.177
367.897
367.554
367.325
367.152
367.152
367.26
367.81
368.305
357.486
356.828
356.301
355.972
355.896
356.104
356.411
356.735
357.131
357.431
357.581
357.647
357.37
357.088
356.894
356.774
356.772
356.857
357.361
357.699
346.996
346.446
346.03
345.779
345.714
345.873
346.119
346.374
346.719
346.957
347.079
347.129
346.907
346.657
346.503
346.424
346.409
346.486
346.922
347.164
336.535
336.076
335.767
335.606
335.552
335.669
335.87
336.06
336.32
336.511
336.616
336.618
336.463
336.239
336.143
336.084
336.074
336.137
336.492
336.645
326.098
325.76
325.54
325.446
325.397
325.467
325.639
325.774
325.946
326.091
326.161
326.143
326.059
325.877
325.805
325.765
325.77
325.808
326.069
326.161
315.654
315.46
315.324
315.289
315.262
315.304
315.4
315.477
315.59
315.671
315.707
315.701
315.648
315.52
315.505
315.465
315.485
315.5
315.666
315.71
305.244
305.174
305.137
305.13
305.13
305.127
305.16
305.188
305.231
305.261
305.259
305.267
305.258
305.206
305.192
305.174
305.19
305.198
305.249
305.27
380.56
379.735
378.964
378.394
378.228
378.366
378.699
379.105
379.623
379.998
380.22
380.161
379.993
379.771
379.518
379.326
379.404
379.731
380.232
380.993
369.712
369.026
368.374
367.86
367.702
367.815
368.134
368.453
368.946
369.267
369.444
369.377
369.243
369.029
368.838
368.659
368.721
369.029
369.455
370.091
358.926
358.353
357.808
357.345
357.212
357.29
357.585
357.837
358.273
358.57
358.709
358.65
358.531
358.32
358.17
358.036
358.08
358.365
358.715
359.224
348.189
347.707
347.272
346.875
346.783
346.823
347.072
347.293
347.638
347.883
347.993
347.944
347.85
347.665
347.557
347.451
347.492
347.737
348.016
348.379
337.463
337.08
336.766
336.436
336.379
336.397
336.589
336.757
337.022
337.237
337.319
337.278
337.203
337.045
336.985
336.912
336.911
337.127
337.339
337.601
326.736
326.474
326.266
326.006
326.005
325.994
326.139
326.249
326.43
326.593
326.644
326.625
326.581
326.446
326.402
326.389
326.36
326.501
326.676
326.861
316.044
315.895
315.79
315.613
315.626
315.607
315.694
315.752
315.865
315.967
316.001
315.979
315.983
315.885
315.838
315.845
315.823
315.909
316.034
316.127
305.367
305.328
305.287
305.232
305.247
305.236
305.258
305.278
305.31
305.347
305.363
305.348
305.361
305.331
305.303
305.316
305.298
305.339
305.37
305.401
382.465
381.683
380.903
380.141
379.91
380.03
380.229
380.502
381.095
381.409
381.49
381.495
381.454
381.255
381.132
381.048
381.269
381.616
382.226
383.07
371.322
370.674
370.015
369.354
369.149
369.239
369.414
369.642
370.167
370.43
370.512
370.518
370.47
370.307
370.202
370.133
370.336
370.641
371.151
371.858
360.246
359.711
359.158
358.611
358.431
358.512
358.655
358.857
359.285
359.518
359.6
359.599
359.534
359.407
359.321
359.277
359.423
359.684
360.129
360.686
349.234
348.791
348.363
347.903
347.756
347.826
347.946
348.121
348.451
348.637
348.737
348.724
348.654
348.54
348.458
348.43
348.558
348.764
349.135
349.582
338.256
337.914
337.606
337.24
337.126
337.16
337.275
337.401
337.657
337.808
337.907
337.874
337.807
337.711
337.656
337.651
337.734
337.904
338.195
338.527
327.291
327.07
326.862
326.582
326.508
326.524
326.619
326.712
326.88
327
327.075
327.046
327.001
326.921
326.876
326.901
326.951
327.064
327.283
327.519
316.387
316.258
316.116
315.963
315.915
315.915
315.982
316.032
316.13
316.213
316.253
316.246
316.212
316.176
316.132
316.168
316.178
316.251
316.385
316.524
305.499
305.461
305.402
305.35
305.34
305.327
305.359
305.384
305.404
305.43
305.453
305.444
305.438
305.423
305.409
305.423
305.43
305.44
305.497
305.55
383.932
382.999
382.103
381.585
381.178
381.299
381.415
381.623
382.246
382.472
382.61
382.608
382.6
382.328
382.244
382.31
382.586
383.044
383.611
384.483
372.527
371.762
370.971
370.554
370.188
370.294
370.399
370.568
371.112
371.336
371.435
371.428
371.436
371.174
371.125
371.157
371.382
371.803
372.271
373.003
361.217
360.573
359.921
359.599
359.27
359.339
359.466
359.571
360.08
360.259
360.339
360.312
360.33
360.1
360.079
360.058
360.271
360.652
361.013
361.583
349.995
349.462
348.921
348.703
348.421
348.448
348.585
348.648
349.096
349.225
349.273
349.263
349.278
349.074
349.084
349.045
349.241
349.546
349.804
350.266
338.835
338.428
338.006
337.823
337.624
337.632
337.746
337.792
338.154
338.232
338.284
338.271
338.28
338.106
338.132
338.091
338.261
338.487
338.673
339.028
327.728
327.428
327.125
326.991
326.868
326.855
326.952
326.985
327.23
327.295
327.337
327.312
327.329
327.199
327.216
327.175
327.32
327.456
327.579
327.865
316.652
316.459
316.278
316.196
316.121
316.112
316.179
316.21
316.358
316.382
316.41
316.393
316.409
316.327
316.335
316.304
316.403
316.483
316.528
316.717
305.585
305.52
305.46
305.423
305.408
305.411
305.417
305.432
305.483
305.483
305.503
305.495
305.508
305.477
305.471
305.458
305.5
305.524
305.531
305.605
)
;

boundaryField
{
    hotSide
    {
        type            fixedGradient;
        gradient        nonuniform List<scalar> 
400
(
588.904
590.448
595.514
604.007
615.576
629.719
645.895
663.615
682.471
702.15
722.415
743.104
764.109
785.373
806.879
828.644
850.708
873.124
895.934
919.156
565.772
567.687
573.37
582.705
595.267
610.458
627.661
646.33
666.028
686.425
707.282
728.439
749.797
771.308
792.969
814.817
836.913
859.33
882.133
905.352
552.25
554.885
561.246
571.203
584.332
600.036
617.7
636.771
656.806
677.467
698.513
719.782
741.177
762.659
784.234
805.946
827.866
850.079
872.655
895.633
547.715
551.396
558.512
568.928
582.276
598.042
615.674
634.662
654.576
675.08
695.93
716.961
738.08
759.249
780.481
801.824
823.35
845.141
867.268
889.775
549.753
554.674
562.659
573.562
587.075
602.773
620.188
638.864
658.401
678.477
698.85
719.361
739.922
760.505
781.131
801.854
822.75
843.896
865.363
887.199
555.613
561.862
570.847
582.409
596.268
612.057
629.362
647.77
666.908
686.466
706.218
726.018
745.798
765.554
785.328
805.191
825.23
845.528
866.159
887.176
563.019
570.614
580.72
593.153
607.637
623.816
641.29
659.655
678.538
697.636
716.736
735.72
754.562
773.302
792.025
810.836
829.844
849.147
868.827
888.942
570.207
579.105
590.397
603.878
619.251
636.142
654.122
672.75
691.617
710.4
728.896
747.033
764.847
782.454
800.004
817.657
835.552
853.809
872.515
891.731
575.771
585.831
598.267
612.859
629.287
647.134
665.914
685.103
704.215
722.874
740.876
758.206
774.999
791.473
807.866
824.397
841.243
858.536
876.368
894.797
578.581
589.521
602.895
618.472
635.914
654.767
674.47
694.403
713.964
732.698
750.39
767.095
783.058
798.614
814.087
829.749
845.804
862.39
879.597
897.473
577.829
589.22
603.13
619.332
637.476
657.081
677.535
698.139
718.202
737.197
754.893
771.391
787.02
802.188
817.274
832.578
848.315
864.625
881.593
899.264
573.171
584.479
598.4
614.703
633.031
652.89
673.658
694.621
715.08
734.498
752.633
769.571
785.625
801.192
816.644
832.279
848.31
864.88
882.076
899.946
564.851
575.55
588.968
604.871
622.896
642.551
663.233
684.275
705.042
725.043
744.03
762.015
779.21
795.918
812.449
829.066
845.972
863.311
881.18
899.635
553.747
563.414
575.961
591.161
608.645
627.925
648.422
669.529
690.679
711.431
731.522
750.885
769.61
787.882
805.921
823.937
842.108
860.576
879.442
898.774
541.348
549.708
561.212
575.642
592.621
611.644
632.131
653.496
675.208
696.846
718.13
738.929
759.241
779.152
798.8
818.34
837.919
857.667
877.686
898.05
529.777
536.697
547.138
560.897
577.563
596.572
617.298
639.132
661.539
684.098
706.515
728.62
750.353
771.738
792.852
813.806
834.719
855.708
876.87
898.281
521.88
527.366
536.813
550.03
566.541
585.686
606.755
629.09
652.139
675.477
698.805
721.936
744.782
767.327
789.613
811.721
833.749
855.8
877.966
900.318
521.118
525.347
533.889
546.564
562.831
581.941
603.116
625.662
649.019
672.766
696.607
720.353
743.897
767.205
790.294
813.219
836.063
858.915
881.86
904.959
530.569
533.903
541.609
553.526
569.116
587.633
608.306
630.453
653.53
677.126
700.95
724.806
748.58
772.216
795.711
819.097
842.434
865.796
889.249
912.844
551.148
553.995
560.922
571.798
586.18
603.438
622.9
643.956
666.101
688.943
712.195
735.655
759.191
782.73
806.243
829.739
853.251
876.824
900.505
924.326
)
;
    }
    coldSide
    {
        type            mixed;
        refValue        uniform 300;
        refGradient     uniform 0;
        valueFraction   uniform 0.991591;
        source          uniform 0;
        value           nonuniform List<scalar> 
400
(
300.03
300.03
300.031
300.031
300.032
300.032
300.033
300.034
300.035
300.036
300.037
300.038
300.04
300.041
300.042
300.043
300.044
300.045
300.046
300.047
300.03
300.03
300.03
300.03
300.031
300.032
300.033
300.034
300.035
300.036
300.037
300.038
300.039
300.04
300.041
300.043
300.044
300.045
300.046
300.046
300.029
300.029