/*--------------------------------*- C++ -*----------------------------------*\
| =========                 |                                                 |
| \\      /  F ield         | OpenFOAM: The Open Source CFD Toolbox           |
|  \\    /   O peration     | Version:  2212                                  |
|   \\  /    A nd           | Website:  www.openfoam.com                      |
|    \\/     M anipulation  |                                                 |
\*---------------------------------------------------------------------------*/
FoamFile
{
    version     2.0;
    format      ascii;
    arch        "LSB;label=32;scalar=64";
    class       volScalarField;
    location    "0";
    object      T;
}
// * * * * * * * * * * * * * * * * * * * * * * * * * * * * * * * * * * * * * //

dimensions      [0 0 0 1 0 0 0];

internalField   nonuniform List<scalar> 
3200
(
319.384
319.041
318.858
319.021
319.502
319.982
320.433
321.041
321.474
321.717
321.974
321.848
321.652
321.391
320.873
320.244
320.113
319.942
320.136
320.462
317.014
316.732
316.563
316.695
317.103
317.501
317.914
318.432
318.802
319.027
319.231
319.106
318.941
318.713
318.244
317.677
317.566
317.436
317.614
317.884
314.543
314.346
314.188
314.29
314.631
314.946
315.307
315.72
316.034
316.236
316.406
316.292
316.162
315.953
315.544
315.058
314.955
314.846
315.044
315.265
312.011
311.867
311.718
311.782
312.081
312.319
312.611
312.943
313.209
313.383
313.494
313.411
313.32
313.118
312.758
312.407
312.302
312.212
312.421
312.584
309.401
309.294
309.186
309.214
309.481
309.66
309.869
310.1
310.345
310.474
310.553
310.476
310.425
310.251
309.961
309.716
309.586
309.539
309.716
309.859
306.764
306.681
306.609
306.624
306.821
306.953
307.086
307.25
307.417
307.503
307.565
307.513
307.483
307.353
307.147
306.975
306.874
306.836
306.96
307.093
304.092
304.034
303.982
303.989
304.111
304.187
304.26
304.37
304.463
304.516
304.547
304.537
304.51
304.431
304.312
304.201
304.142
304.127
304.175
304.272
301.373
301.352
301.341
301.334
301.393
301.404
301.436
301.466
301.507
301.525
301.528
301.518
301.509
301.485
301.449
301.403
301.395
301.391
301.409
301.432
319.524
319.179
318.916
319.098
319.576
320.046
320.647
321.146
321.654
322.075
322.212
322.118
321.914
321.534
321.052
320.475
320.276
320.066
320.176
320.577
317.155
316.851
316.605
316.767
317.18
317.551
318.08
318.481
318.959
319.304
319.415
319.323
319.124
318.798
318.408
317.869
317.727
317.531
317.657
317.986
314.673
314.425
314.219
314.335
314.669
314.982
315.437
315.744
316.179
316.44
316.533
316.462
316.274
316.018
315.686
315.211
315.111
314.93
315.078
315.326
312.133
311.903
311.752
311.821
312.101
312.356
312.734
312.966
313.291
313.535
313.597
313.541
313.398
313.2
312.932
312.499
312.442
312.286
312.418
312.622
309.508
309.315
309.198
309.248
309.462
309.68
309.948
310.134
310.365
310.586
310.634
310.574
310.471
310.304
310.104
309.764
309.699
309.608
309.694
309.865
306.842
306.682
306.609
306.619
306.784
306.945
307.129
307.249
307.425
307.604
307.635
307.591
307.521
307.397
307.251
307.004
306.934
306.876
306.941
307.071
304.129
304.031
303.98
303.979
304.103
304.194
304.299
304.366
304.485
304.569
304.599
304.57
304.533
304.47
304.367
304.213
304.175
304.123
304.177
304.252
301.387
301.363
301.345
301.331
301.384
301.418
301.454
301.47
301.506
301.531
301.545
301.539
301.526
301.496
301.461
301.408
301.4
301.376
301.4
301.435
319.769
319.362
319.141
319.295
319.766
320.212
320.944
321.604
322.121
322.411
322.569
322.468
322.294
321.856
321.362
320.897
320.514
320.261
320.377
320.624
317.362
317.012
316.793
316.946
317.336
317.696
318.34
318.894
319.348
319.555
319.707
319.6
319.445
319.097
318.656
318.264
317.924
317.709
317.818
318.025
314.844
314.555
314.369
314.493
314.812
315.103
315.629
316.091
316.489
316.655
316.805
316.673
316.579
316.282
315.885
315.572
315.286
315.095
315.189
315.352
312.247
312.013
311.862
311.966
312.22
312.436
312.867
313.243
313.565
313.69
313.837
313.705
313.683
313.396
313.066
312.837
312.583
312.413
312.514
312.636
309.599
309.423
309.29
309.367
309.592
309.729
310.062
310.349
310.587
310.667
310.834
310.714
310.7
310.468
310.19
310.03
309.827
309.666
309.777
309.862
306.895
306.768
306.667
306.734
306.887
306.98
307.213
307.419
307.597
307.627
307.774
307.695
307.67
307.489
307.291
307.193
307.033
306.934
306.999
307.08
304.16
304.073
304.011
304.069
304.134
304.196
304.335
304.46
304.572
304.582
304.668
304.639
304.631
304.511
304.379
304.314
304.226
304.167
304.217
304.27
301.403
301.363
301.343
301.362
301.391
301.409
301.452
301.489
301.52
301.529
301.562
301.553
301.552
301.521
301.467
301.441
301.419
301.4
301.421
301.433
320.06
319.659
319.521
319.807
320.187
320.645
321.272
321.924
322.645
322.998
323.247
323.025
322.895
322.294
321.71
321.281
320.874
320.611
320.704
320.943
317.639
317.285
317.161
317.374
317.711
318.076
318.619
319.19
319.782
320.071
320.287
320.095
319.991
319.467
318.967
318.583
318.227
318.006
318.118
318.29
315.083
314.809
314.69
314.85
315.132
315.415
315.887
316.364
316.853
317.105
317.254
317.106
317.032
316.577
316.166
315.832
315.528
315.326
315.462
315.546
312.445
312.25
312.138
312.234
312.483
312.711
313.088
313.477
313.865
314.09
314.186
314.067
313.983
313.634
313.305
313.029
312.785
312.598
312.739
312.796
309.75
309.611
309.52
309.58
309.797
309.966
310.238
310.536
310.828
311.005
311.067
310.983
310.906
310.653
310.4
310.177
310.013
309.819
309.979
310.001
306.995
306.907
306.84
306.896
307.037
307.148
307.338
307.541
307.766
307.877
307.914
307.87
307.803
307.632
307.46
307.282
307.194
307.028
307.158
307.161
304.227
304.153
304.119
304.153
304.227
304.303
304.411
304.533
304.652
304.733
304.756
304.743
304.69
304.587
304.5
304.368
304.324
304.226
304.294
304.306
301.425
301.398
301.388
301.395
301.42
301.453
301.475
301.511
301.544
301.6
301.596
301.598
301.576
301.542
301.506
301.466
301.45
301.416
301.428
301.445
320.352
320.083
319.903
320.248
320.571
321.055
321.779
322.437
323.062
323.568
323.861
323.648
323.306
322.74
322.159
321.721
321.44
321.035
321.042
321.314
317.877
317.647
317.466
317.763
318.043
318.404
319.068
319.626
320.173
320.603
320.841
320.598
320.344
319.852
319.331
318.953
318.743
318.384
318.406
318.618
315.285
315.112
314.941
315.171
315.413
315.689
316.273
316.726
317.196
317.554
317.717
317.503
317.331
316.909
316.47
316.127
315.944
315.663
315.679
315.85
312.602
312.461
312.322
312.502
312.719
312.941
313.417
313.783
314.153
314.444
314.558
314.37
314.254
313.914
313.569
313.255
313.114
312.864
312.907
313.021
309.89
309.767
309.64
309.787
309.939
310.135
310.487
310.766
311.059
311.281
311.317
311.23
311.145
310.864
310.607
310.333
310.263
310.038
310.093
310.173
307.109
307.03
306.915
307.008
307.123
307.268
307.536
307.695
307.916
308.076
308.09
308.05
307.984
307.795
307.609
307.399
307.376
307.187
307.216
307.293
304.307
304.225
304.172
304.219
304.3
304.384
304.534
304.62
304.756
304.866
304.868
304.845
304.794
304.69
304.574
304.434
304.447
304.318
304.329
304.379
301.461
301.421
301.404
301.408
301.46
301.46
301.516
301.545
301.59
301.631
301.636
301.622
301.601
301.564
301.532
301.488
301.498
301.442
301.442
301.47
320.799
320.506
320.422
320.642
321.113
321.693
322.297
322.977
323.617
324.094
324.359
324.324
323.944
323.346
322.735
322.169
321.845
321.504
321.44
321.68
318.284
318.03
317.917
318.1
318.519
318.986
319.534
320.064
320.626
321.044
321.228
321.202
320.912
320.366
319.831
319.349
319.07
318.78
318.754
318.938
315.67
315.438
315.309
315.475
315.831
316.202
316.668
317.079
317.572
317.891
318.044
318.024
317.797
317.329
316.877
316.486
316.248
315.981
315.981
316.146
312.932
312.755
312.624
312.756
313.055
313.334
313.738
314.053
314.456
314.698
314.85
314.797
314.637
314.244
313.867
313.565
313.378
313.159
313.15
313.282
310.139
310.022
309.891
309.977
310.204
310.41
310.75
310.984
311.296
311.451
311.605
311.529
311.427
311.123
310.841
310.586
310.45
310.28
310.273
310.385
307.268
307.213
307.116
307.149
307.306
307.452
307.716
307.875
308.09
308.207
308.318
308.264
308.181
307.962
307.791
307.572
307.486
307.351
307.362
307.46
304.381
304.363
304.295
304.291
304.412
304.488
304.648
304.743
304.868
304.935
305.008
304.97
304.917
304.787
304.704
304.554
304.524
304.419
304.433
304.497
301.484
301.47
301.434
301.439
301.491
301.513
301.574
301.599
301.643
301.654
301.683
301.668
301.643
301.619
301.588
301.529
301.515
301.481
301.496
301.512
321.245
320.961
320.891
321.033
321.588
322.177
322.816
323.513
324.25
324.654
324.917
324.96
324.597
324.008
323.345
322.742
322.324
322.076
322.027
322.134
318.675
318.415
318.322
318.447
318.917
319.419
319.958
320.534
321.194
321.491
321.744
321.788
321.462
320.938
320.359
319.842
319.501
319.297
319.259
319.328
315.973
315.748
315.671
315.767
316.15
316.587
317.033
317.502
318.043
318.269
318.521
318.548
318.274
317.816
317.353
316.865
316.635
316.435
316.416
316.46
313.195
312.985
312.935
313.005
313.295
313.678
314.018
314.428
314.852
315.009
315.197
315.212
315.019
314.625
314.261
313.866
313.696
313.533
313.506
313.554
310.355
310.175
310.122
310.172
310.395
310.704
310.966
311.274
311.609
311.712
311.841
311.858
311.722
311.4
311.142
310.808
310.707
310.556
310.537
310.593
307.467
307.301
307.267
307.311
307.461
307.666
307.872
308.086
308.334
308.387
308.463
308.482
308.376
308.151
307.987
307.718
307.683
307.556
307.548
307.614
304.5
304.408
304.388
304.392
304.499
304.619
304.751
304.872
305.033
305.046
305.094
305.089
305.034
304.886
304.81
304.62
304.633
304.551
304.539
304.587
301.518
301.486
301.477
301.469
301.508
301.554
301.592
301.641
301.689
301.692
301.704
301.702
301.685
301.625
301.614
301.545
301.559
301.521
301.516
301.544
321.802
321.527
321.367
321.624
322.07
322.65
323.317
324.055
324.851
325.282
325.523
325.599
325.137
324.629
323.965
323.29
323.005
322.649
322.593
322.75
319.148
318.897
318.767
318.954
319.339
319.825
320.373
321.019
321.724
322.07
322.275
322.337
321.941
321.481
320.898
320.334
320.068
319.774
319.745
319.859
316.386
316.17
316.066
316.173
316.511
316.904
317.36
317.886
318.532
318.788
318.935
319.006
318.689
318.254
317.78
317.306
317.09
316.848
316.835
316.901
313.552
313.338
313.264
313.325
313.614
313.917
314.289
314.711
315.265
315.447
315.553
315.628
315.37
314.993
314.635
314.231
314.034
313.86
313.865
313.889
310.643
310.46
310.395
310.421
310.635
310.888
311.172
311.476
311.931
312.094
312.139
312.19
312.009
311.663
311.432
311.115
310.946
310.837
310.827
310.862
307.652
307.535
307.475
307.461
307.606
307.805
308.013
308.227
308.553
308.671
308.697
308.708
308.607
308.329
308.194
307.954
307.833
307.786
307.747
307.794
304.616
304.548
304.506
304.485
304.56
304.704
304.824
304.958
305.165
305.22
305.232
305.21
305.185
305.006
304.919
304.791
304.695
304.701
304.651
304.704
301.547
301.528
301.512
301.504
301.525
301.58
301.617
301.669
301.735
301.76
301.759
301.727
301.737
301.681
301.639
301.608
301.574
301.579
301.553
301.582
322.375
322.11
322.157
322.326
322.664
323.303
323.926
324.657
325.331
325.832
326.219
326.08
325.683
325.246
324.488
323.905
323.369
323.069
323.116
323.325
319.641
319.411
319.446
319.589
319.847
320.392
320.916
321.535
322.106
322.55
322.87
322.762
322.398
322.023
321.379
320.863
320.395
320.153
320.196
320.359
316.806
316.61
316.641
316.728
316.923
317.392
317.81
318.325
318.826
319.183
319.441
319.365
319.059
318.721
318.207
317.741
317.343
317.149
317.186
317.314
313.891
313.704
313.767
313.789
313.941
314.315
314.632
315.054
315.464
315.773
315.959
315.917
315.677
315.359
314.952
314.551
314.26
314.075
314.123
314.224
310.896
310.744
310.809
310.814
310.913
311.193
311.401
311.748
312.076
312.326
312.442
312.429
312.23
311.952
311.665
311.352
311.134
310.975
311.017
311.075
307.817
307.723
307.775
307.776
307.849
308.03
308.181
308.422
308.637
308.841
308.916
308.904
308.76
308.553
308.353
308.135
307.959
307.857
307.878
307.919
304.7
304.649
304.688
304.691
304.727
304.841
304.929
305.064
305.196
305.337
305.365
305.352
305.281
305.153
305.016
304.903
304.781
304.729
304.72
304.759
301.573
301.561
301.567
301.568
301.588
301.633
301.654
301.691
301.753
301.789
301.794
301.797
301.769
301.73
301.69
301.647
301.597
301.595
301.575
301.599
322.934
322.655
322.915
322.819
323.167
323.747
324.466
325.167
325.836
326.23
326.534
326.523
326.287
325.731
324.966
324.502
323.924
323.627
323.566
323.736
320.15
319.895
320.1
320.005
320.302
320.792
321.393
321.988
322.547
322.885
323.133
323.118
322.92
322.433
321.781
321.389
320.868
320.613
320.579
320.702
317.233
317.027
317.204
317.095
317.346
317.746
318.247
318.724
319.191
319.481
319.648
319.647
319.511
319.057
318.515
318.24
317.76
317.564
317.522
317.592
314.242
314.056
314.214
314.069
314.3
314.61
315.038
315.396
315.764
316.026
316.128
316.133
316.04
315.659
315.205
315.035
314.602
314.454
314.414
314.442
311.195
311.022
311.154
310.999
311.181
311.421
311.768
312.033
312.296
312.492
312.563
312.581
312.526
312.214
311.874
311.754
311.388
311.284
311.253
311.259
308.066
307.913
308.028
307.893
308.025
308.181
308.452
308.641
308.8
308.958
308.988
309.019
308.976
308.745
308.519
308.41
308.145
308.082
308.058
308.055
304.882
304.778
304.83
304.754
304.84
304.92
305.089
305.205
305.297
305.402
305.416
305.432
305.396
305.269
305.132
305.051
304.897
304.867
304.842
304.859
301.638
301.609
301.62
301.594
301.63
301.65
301.706
301.746
301.784
301.813
301.819
301.829
301.813
301.773
301.718
301.687
301.636
301.629
301.625
301.636
323.694
323.383
323.453
323.409
323.892
324.367
325.046
325.677
326.376
326.689
327.017
326.985
326.812
326.195
325.444
325.011
324.512
324.197
324.2
324.271
320.818
320.523
320.578
320.494
320.894
321.332
321.897
322.43
323.03
323.288
323.55
323.541
323.39
322.88
322.19
321.829
321.385
321.114
321.129
321.169
317.812
317.553
317.581
317.489
317.803
318.176
318.651
319.096
319.618
319.799
320.03
320.024
319.893
319.468
318.861
318.591
318.186
317.981
317.99
318
314.709
314.48
314.49
314.42
314.648
314.954
315.348
315.697
316.129
316.238
316.469
316.461
316.375
315.985
315.505
315.31
314.947
314.788
314.796
314.781
311.543
311.341
311.345
311.284
311.442
311.686
311.99
312.249
312.58
312.646
312.864
312.858
312.799
312.467
312.119
311.971
311.675
311.554
311.555
311.527
308.3
308.159
308.135
308.112
308.198
308.39
308.602
308.768
309.018
309.038
309.219
309.22
309.196
308.926
308.675
308.592
308.364
308.288
308.266
308.258
305.004
304.934
304.911
304.884
304.938
305.055
305.167
305.265
305.436
305.44
305.547
305.54
305.542
305.377
305.233
305.179
305.026
305.001
304.968
304.969
301.677
301.661
301.643
301.645
301.66
301.687
301.73
301.768
301.822
301.833
301.866
301.853
301.868
301.796
301.765
301.742
301.684
301.684
301.663
301.671
324.285
324.044
323.997
324.155
324.449
324.891
325.478
326.088
326.667
327.189
327.321
327.496
327.126
326.572
326.003
325.511
325.042
324.829
324.736
324.823
321.338
321.117
321.054
321.18
321.41
321.79
322.276
322.796
323.279
323.725
323.841
323.967
323.668
323.174
322.668
322.252
321.859
321.668
321.583
321.668
318.27
318.065
318.003
318.091
318.271
318.587
318.994
319.414
319.816
320.188
320.271
320.368
320.136
319.689
319.267
318.963
318.62
318.426
318.38
318.447
315.09
314.895
314.867
314.916
315.069
315.313
315.654
315.984
316.286
316.585
316.68
316.716
316.564
316.174
315.82
315.62
315.305
315.159
315.128
315.185
311.825
311.639
311.638
311.68
311.787
311.966
312.223
312.481
312.717
312.928
313.034
313.023
312.945
312.629
312.343
312.198
311.952
311.859
311.814
311.868
308.487
308.343
308.36
308.391
308.422
308.582
308.751
308.95
309.118
309.263
309.34
309.321
309.279
309.046
308.852
308.751
308.569
308.522
308.459
308.506
305.111
305.026
305.047
305.058
305.065
305.146
305.253
305.395
305.487
305.57
305.648
305.601
305.578
305.447
305.33
305.262
305.161
305.135
305.109
305.126
301.714
301.688
301.692
301.696
301.701
301.734
301.768
301.807
301.843
301.869
301.907
301.895
301.88
301.829
301.793
301.758
301.744
301.739
301.721
301.717
324.938
324.678
324.654
324.748
325.012
325.459
326.017
326.696
327.185
327.549
327.716
327.853
327.5
326.972
326.359
325.992
325.486
325.286
325.222
325.411
321.911
321.664
321.632
321.7
321.878
322.282
322.757
323.333
323.736
324.043
324.199
324.291
324.003
323.521
323.005
322.703
322.25
322.05
322.006
322.177
318.765
318.517
318.484
318.565
318.647
319.018
319.381
319.877
320.204
320.465
320.587
320.64
320.402
320.029
319.592
319.338
318.966
318.754
318.748
318.885
315.507
315.275
315.253
315.317
315.355
315.674
315.927
316.344
316.606
316.796
316.903
316.931
316.753
316.455
316.095
315.894
315.598
315.424
315.436
315.514
312.145
311.956
311.951
311.998
311.99
312.23
312.446
312.782
312.978
313.123
313.181
313.205
313.053
312.83
312.561
312.391
312.205
312.041
312.049
312.12
308.73
308.6
308.582
308.609
308.599
308.759
308.936
309.179
309.314
309.421
309.451
309.425
309.346
309.201
308.996
308.886
308.75
308.599
308.614
308.686
305.259
305.209
305.168
305.189
305.179
305.27
305.38
305.523
305.608
305.661
305.677
305.637
305.631
305.533
305.409
305.341
305.258
305.151
305.194
305.213
301.772
301.753
301.73
301.739
301.744
301.767
301.797
301.848
301.881
301.898
301.9
301.89
301.888
301.842
301.814
301.797
301.773
301.721
301.744
301.751
325.481
325.258
325.33
325.477
325.569
325.915
326.473
326.986
327.55
327.881
328.093
328.05
327.805
327.386
326.867
326.48
325.982
325.758
325.699
325.754
322.369
322.17
322.248
322.343
322.384
322.693
323.172
323.587
324.064
324.345
324.522
324.484
324.27
323.892
323.45
323.11
322.661
322.472
322.442
322.483
319.128
318.952
319.031
319.088
319.091
319.374
319.767
320.073
320.495
320.744
320.88
320.849
320.64
320.325
319.959
319.669
319.304
319.131
319.113
319.142
315.802
315.642
315.729
315.759
315.711
315.946
316.269
316.507
316.866
317.073
317.173
317.126
316.964
316.71
316.382
316.14
315.892
315.73
315.718
315.732
312.382
312.261
312.332
312.32
312.269
312.447
312.714
312.892
313.175
313.36
313.404
313.363
313.222
313.064
312.796
312.595
312.41
312.295
312.264
312.283
308.906
308.792
308.867
308.834
308.792
308.911
309.113
309.237
309.428
309.589
309.604
309.567
309.464
309.373
309.15
309.017
308.898
308.821
308.798
308.779
305.349
305.295
305.357
305.303
305.294
305.361
305.494
305.569
305.668
305.773
305.774
305.766
305.69
305.636
305.504
305.427
305.35
305.307
305.3
305.28
301.786
301.763
301.801
301.777
301.779
301.809
301.846
301.871
301.901
301.947
301.939
301.946
301.9
301.888
301.849
301.821
301.802
301.777
301.776
301.777
326.073
325.909
325.952
326.119
326.057
326.531
326.867
327.29
327.903
328.173
328.341
328.178
328.02
327.697
327.306
326.894
326.456
326.16
326.221
326.37
322.878
322.76
322.777
322.928
322.803
323.235
323.518
323.833
324.403
324.611
324.767
324.592
324.421
324.185
323.83
323.47
323.078
322.833
322.888
323.016
319.554
319.47
319.471
319.613
319.469
319.834
320.091
320.32
320.816
320.95
321.095
320.95
320.762
320.619
320.295
319.992
319.664
319.455
319.476
319.601
316.141
316.071
316.09
316.189
316.069
316.328
316.565
316.721
317.175
317.221
317.337
317.232
317.063
316.975
316.667
316.421
316.174
316.002
316.028
316.129
312.647
312.592
312.631
312.686
312.571
312.761
312.959
313.068
313.441
313.462
313.519
313.449
313.316
313.248
312.988
312.814
312.645
312.496
312.521
312.611
309.089
309.047
309.084
309.115
309.001
309.165
309.302
309.376
309.635
309.663
309.668
309.64
309.545
309.474
309.289
309.185
309.068
308.964
308.961
309.038
305.487
305.455
305.479
305.509
305.408
305.522
305.603
305.636
305.797
305.814
305.816
305.801
305.754
305.701
305.588
305.518
305.463
305.41
305.389
305.42
301.844
301.824
301.849
301.844
301.821
301.86
301.885
301.885
301.944
301.951
301.945
301.947
301.935
301.91
301.876
301.852
301.835
301.827
301.809
301.809
326.765
326.655
326.55
326.625
326.813
327.135
327.473
327.763
328.259
328.518
328.585
328.485
328.388
328.077
327.743
327.387
327
326.83
326.922
326.979
323.492
323.37
323.291
323.353
323.492
323.761
324.065
324.27
324.734
324.942
324.985
324.868
324.765
324.488
324.206
323.883
323.569
323.408
323.509
323.547
320.07
319.959
319.926
319.981
320.066
320.261
320.55
320.694
321.125
321.258
321.256
321.166
321.059
320.84
320.57
320.302
320.08
319.92
320.012
320.055
316.559
316.462
316.448
316.503
316.53
316.7
316.938
317.035
317.397
317.501
317.479
317.409
317.307
317.116
316.894
316.672
316.522
316.394
316.47
316.493
312.968
312.871
312.89
312.925
312.948
313.083
313.25
313.325
313.61
313.684
313.646
313.584
313.51
313.363
313.176
312.998
312.92
312.811
312.861
312.889
309.315
309.229
309.262
309.289
309.301
309.388
309.507
309.565
309.757
309.809
309.777
309.711
309.689
309.556
309.434
309.305
309.264
309.163
309.219
309.239
305.608
305.56
305.588
305.6
305.612
305.665
305.734
305.749
305.876
305.911
305.879
305.829
305.84
305.744
305.675
305.59
305.572
305.515
305.539
305.561
301.875
301.863
301.881
301.875
301.881
301.893
301.929
301.926
301.966
301.988
301.973
301.964
301.97
301.925
301.91
301.87
301.864
301.848
301.852
301.869
327.407
327.271
326.983
327.083
327.367
327.726
327.952
328.291
328.658
328.78
328.811
328.876
328.786
328.595
328.204
327.78
327.563
327.336
327.474
327.58
324.048
323.932
323.672
323.755
323.966
324.29
324.463
324.728
325.057
325.151
325.154
325.219
325.13
324.95
324.606
324.231
324.074
323.875
323.978
324.069
320.58
320.466
320.241
320.299
320.463
320.734
320.883
321.089
321.363
321.445
321.416
321.484
321.402
321.22
320.952
320.623
320.501
320.334
320.42
320.483
316.984
316.893
316.712
316.762
316.877
317.073
317.208
317.348
317.575
317.639
317.606
317.668
317.599
317.445
317.23
316.953
316.875
316.728
316.817
316.828
313.301
313.218
313.102
313.147
313.215
313.353
313.439
313.563
313.736
313.756
313.746
313.797
313.756
313.613
313.445
313.238
313.211
313.08
313.143
313.141
309.547
309.489
309.386
309.429
309.495
309.573
309.629
309.722
309.841
309.857
309.853
309.888
309.847
309.756
309.638
309.479
309.472
309.374
309.413
309.426
305.76
305.711
305.657
305.681
305.718
305.765
305.804
305.847
305.92
305.937
305.938
305.936
305.923
305.881
305.812
305.692
305.71
305.657
305.669
305.68
301.933
301.91
301.906
301.902
301.926
301.937
301.95
301.967
301.976
301.988
301.997
301.988
301.983
301.972
301.947
301.909
301.912
301.909
301.904
301.907
327.931
327.882
327.585
327.655
327.874
328.157
328.445
328.573
328.822
329.132
329.078
329.244
329.102
328.743
328.532
328.128
328.012
327.916
327.91
328.117
324.511
324.478
324.189
324.249
324.443
324.653
324.938
324.997
325.235
325.468
325.405
325.521
325.429
325.112
324.901
324.553
324.462
324.356
324.364
324.523
320.955
320.917
320.666
320.711
320.887
321.057
321.305
321.289
321.546
321.697
321.64
321.713
321.651
321.409
321.21
320.889
320.818
320.712
320.73
320.834
317.276
317.265
317.052
317.068
317.24
317.348
317.563
317.52
317.745
317.877
317.798
317.845
317.798
317.629
317.45
317.175
317.114
317.036
317.024
317.11
313.516
313.533
313.347
313.351
313.478
313.577
313.738
313.693
313.891
313.999
313.914
313.932
313.887
313.786
313.657
313.414
313.358
313.314
313.292
313.339
309.713
309.736
309.575
309.599
309.666
309.746
309.857
309.834
309.971
310.032
309.985
309.98
309.943
309.908
309.791
309.613
309.565
309.535
309.533
309.545
305.859
305.893
305.759
305.786
305.818
305.858
305.945
305.922
306.001
306.037
306.022
306.01
305.975
305.967
305.903
305.793
305.764
305.737
305.74
305.732
301.969
301.988
301.935
301.937
301.962
301.968
301.986
301.993
302.014
302.01
302.032
302.011
302.008
302.004
301.987
301.95
301.93
301.924
301.921
301.917
328.633
328.292
328.003
328.135
328.279
328.602
328.875
329.019
329.26
329.497
329.457
329.596
329.374
329.077
328.863
328.56
328.36
328.34
328.519
328.61
325.106
324.846
324.543
324.658
324.756
325.057
325.29
325.393
325.587
325.798
325.731
325.841
325.674
325.394
325.198
324.938
324.758
324.737
324.888
324.958
321.456
321.234
320.938
321.054
321.142
321.392
321.59
321.66
321.804
321.988
321.908
321.982
321.896
321.643
321.442
321.227
321.065
321.07
321.183
321.245
317.695
317.529
317.258
317.353
317.439
317.628
317.81
317.836
317.952
318.089
318.013
318.081
318.026
317.816
317.63
317.437
317.329
317.329
317.402
317.475
313.818
313.755
313.513
313.577
313.639
313.795
313.933
313.975
314.024
314.132
314.058
314.119
314.096
313.93
313.773
313.622
313.526
313.554
313.571
313.633
309.903
309.92
309.71
309.744
309.787
309.889
309.977
310.031
310.043
310.13
310.076
310.135
310.113
310.001
309.857
309.766
309.691
309.715
309.709
309.761
305.958
305.98
305.839
305.848
305.892
305.938
306.008
306.037
306.031
306.097
306.066
306.102
306.096
306.031
305.926
305.885
305.83
305.835
305.837
305.88
301.995
302.006
301.949
301.953
301.97
301.983
302.026
302.022
302.023
302.05
302.039
302.051
302.058
302.014
301.986
301.974
301.958
301.952
301.954
301.974
329.108
328.707
328.453
328.493
328.76
328.894
329.1
329.379
329.554
329.638
329.732
329.746
329.518
329.311
329.065
328.858
328.662
328.6
328.841
328.968
325.517
325.17
324.944
324.949
325.171
325.286
325.462
325.674
325.821
325.897
325.96
325.993
325.764
325.593
325.364
325.151
324.977
324.931
325.16
325.254
321.768
321.516
321.281
321.307
321.481
321.565
321.713
321.861
321.986
322.08
322.102
322.122
321.933
321.796
321.602
321.39
321.242
321.231
321.386
321.471
317.922
317.755
317.538
317.551
317.69
317.773
317.887
317.976
318.086
318.166
318.177
318.188
318.063
317.943
317.783
317.591
317.476
317.477
317.566
317.652
313.983
313.933
313.749
313.712
313.836
313.889
313.982
314.046
314.123
314.19
314.199
314.197
314.13
314.029
313.892
313.732
313.66
313.647
313.725
313.783
310.029
310.008
309.886
309.832
309.917
309.98
310.037
310.074
310.113
310.176
310.191
310.177
310.131
310.052
309.95
309.832
309.795
309.778
309.825
309.886
306.025
306.035
305.949
305.926
305.97
306.013
306.05
306.06
306.084
306.122
306.139
306.129
306.101
306.056
305.992
305.904
305.902
305.891
305.916
305.954
302.024
302.027
302.001
301.987
302.009
302.02
302.036
302.029
302.05
302.056
302.066
302.064
302.049
302.036
302.018
301.98
301.979
301.986
301.989
302.001
)
;

boundaryField
{
    hotSide
    {
        type            fixedGradient;
        gradient        nonuniform List<scalar> 
400
(
179.743
179.941
181.301
183.783
187.256
191.535
196.42
201.735
207.331
213.099
218.959
224.86
230.776
236.701
242.648
248.645
254.732
260.952
267.34
273.914
175.407
175.785
177.407
180.223
184.075
188.74
193.99
199.627
205.492
211.469
217.476
223.465
229.413
235.32
241.206
247.109
253.08
259.175
265.441
271.901
174.609
175.309
177.229
180.314
184.402
189.272
194.694
200.466
206.425
212.454
218.471
224.427
230.301
236.099
241.844
247.582
253.368
259.262
265.315
271.557
177.097
178.253
180.515
183.824
188.038
192.963
198.39
204.131
210.029
215.966
221.858
227.659
233.351
238.94
244.458
249.949
255.47
261.081
266.83
272.751
181.954
183.652
186.313
189.874
194.21
199.157
204.536
210.175
215.926
221.676
227.344
232.885
238.288
243.564
248.749
253.894
259.054
264.288
269.645
275.159
188.125
190.41
193.534
197.425
201.966
207.01
212.393
217.956
223.559
229.09
234.475
239.677
244.693
249.551
254.296
258.986
263.684
268.451
273.337
278.38
194.716
197.606
201.249
205.561
210.424
215.688
221.191
226.769
232.278
237.607
242.686
247.492
252.043
256.386
260.591
264.732
268.883
273.113
277.475
282.013
201.006
204.486
208.677
213.483
218.774
224.388
230.143
235.854
241.357
246.529
251.303
255.677
259.701
263.459
267.053
270.583
274.141
277.804
281.632
285.668
206.389
210.399
215.114
220.432
226.208
232.261
238.378
244.333
249.921
254.992
259.482
263.416
266.89
270.04
273.011
275.932
278.915
282.044
285.381
288.969
210.358
214.769
219.906
225.661
231.882
238.369
244.872
251.12
256.853
261.883
266.141
269.686
272.672
275.29
277.728
280.145
282.662
285.37
288.33
291.582
212.537
217.148
222.509
228.515
235.008
241.775
248.547
255.013
260.875
265.912
270.049
273.372
276.073
278.385
280.523
282.659
284.925
287.409
290.173
293.254
212.748
217.31
222.639
228.629
235.12
241.897
248.687
255.181
261.077
266.157
270.343
273.716
276.467
278.823
280.998
283.166
285.459
287.968
290.757
293.863
211.072
215.341
220.387
226.105
232.335
238.866
245.443
251.786
257.632
262.79
267.185
270.867
273.98
276.711
279.245
281.742
284.331
287.104
290.13
293.451
207.854
211.639
216.226
221.51
227.336
233.505
239.783
245.927
251.72
257
261.694
265.815
269.455
272.744
275.827
278.842
281.907
285.116
288.539
292.224
203.675
206.86
210.903
215.708
221.123
226.952
232.979
238.987
244.784
250.229
255.245
259.82
264.002
267.878
271.554
275.144
278.754
282.476
286.381
290.52
199.321
201.86
205.354
209.717
214.791
220.378
226.255
232.215
238.076
243.705
249.022
254
258.657
263.051
267.262
271.386
275.518
279.748
284.148
288.769
195.787
197.694
200.68
204.665
209.48
214.905
220.704
226.66
232.598
238.386
243.944
249.234
254.262
259.065
263.707
268.272
272.849
277.527
282.381
287.458
194.231
195.582
198.115
201.757
206.327
211.581
217.272
223.178
229.126
234.988
240.685
246.175
251.456
256.552
261.517
266.422
271.353
276.398
281.631
287.097
195.667
196.6
198.734
202.005
206.239
211.198
216.64
222.353
228.171
233.972
239.677
245.243
250.66
255.944
261.136
266.298
271.505
276.838
282.364
288.12
200.438
201.105
202.889
205.741
209.517
214.02
219.039
224.389
229.916
235.508
241.087
246.607
252.051
257.427
262.764
268.108
273.521
279.065
284.791
290.73
)
;
    }
    coldSide
    {
        type            mixed;
        refValue        uniform 300;
        refGradient     uniform 0;
        valueFraction   uniform 0.991591;
        source          uniform 0;
        value           nonuniform List<scalar> 
400
(
300.012
300.012
300.012
300.012
300.012
300.012
300.013
300.013
300.013
300.014
300.014
300.014
300.015
300.015
300.016
300.016
300.016
300.017
300.017
300.017
300.011
300.011
300.011
300.012
300.012
300.012
300.012
300.013
300.013
300.014
300.014
300.014
300.015
300.015
300.015
300.016
300.016
300.017
300.017
300.017
300.011
300.011