/*--------------------------------*- C++ -*----------------------------------*\
| =========                 |                                                 |
| \\      /  F ield         | OpenFOAM: The Open Source CFD Toolbox           |
|  \\    /   O peration     | Version:  2212                                  |
|   \\  /    A nd           | Website:  www.openfoam.com                      |
|    \\/     M anipulation  |                                                 |
\*---------------------------------------------------------------------------*/
FoamFile
{
    version     2.0;
    format      ascii;
    arch        "LSB;label=32;scalar=64";
    class       volScalarField;
    location    "0";
    object      T;
}
// * * * * * * * * * * * * * * * * * * * * * * * * * * * * * * * * * * * * * //

dimensions      [0 0 0 1 0 0 0];

internalField   nonuniform List<scalar> 
3200
(
341.453
342.509
343.658
344.507
345.291
345.979
346.131
346.786
346.998
347.428
347.345
347.165
346.908
346.532
346.116
345.476
344.316
343.289
342.496
341.772
336.118
336.98
338.032
338.702
339.433
340.099
340.092
340.727
340.947
341.32
341.236
341.092
340.826
340.558
340.299
339.629
338.627
337.722
337.089
336.422
330.679
331.39
332.332
332.865
333.529
334.068
334.016
334.594
334.814
335.122
335.028
334.943
334.685
334.488
334.305
333.659
332.888
332.042
331.557
330.941
325.199
325.771
326.519
327.002
327.52
327.962
327.886
328.377
328.56
328.831
328.75
328.687
328.484
328.292
328.212
327.634
327.019
326.286
325.916
325.412
319.687
320.114
320.671
321.065
321.485
321.798
321.722
322.133
322.232
322.469
322.4
322.365
322.249
322.047
321.992
321.552
321.063
320.459
320.214
319.819
314.121
314.425
314.743
315.082
315.389
315.598
315.528
315.889
315.923
316.103
316.01
316.001
315.955
315.788
315.735
315.404
315.087
314.631
314.53
314.151
308.529
308.698
308.825
309.1
309.234
309.368
309.309
309.558
309.553
309.714
309.607
309.611
309.611
309.491
309.439
309.253
309.064
308.798
308.769
308.529
302.881
302.914
302.956
303.086
303.077
303.112
303.12
303.209
303.205
303.284
303.199
303.231
303.224
303.186
303.167
303.098
303.048
302.956
302.951
302.878
342.29
343.113
344.318
345.36
345.941
346.709
346.995
347.657
347.974
348.182
347.975
347.948
347.664
347.285
346.803
346.041
345.289
344.261
343.404
342.55
336.852
337.493
338.572
339.44
339.983
340.653
340.871
341.443
341.729
341.938
341.744
341.732
341.488
341.14
340.761
340.086
339.469
338.54
337.861
337.087
331.302
331.823
332.745
333.491
333.926
334.526
334.685
335.162
335.374
335.602
335.443
335.412
335.212
334.87
334.598
334.038
333.502
332.734
332.173
331.497
325.664
326.11
326.91
327.512
327.841
328.314
328.465
328.823
328.983
329.216
329.104
329.053
328.885
328.555
328.368
327.905
327.477
326.82
326.38
325.868
320.01
320.353
321.038
321.466
321.681
322.047
322.231
322.435
322.575
322.791
322.681
322.66
322.47
322.276
322.098
321.695
321.427
320.84
320.551
320.217
314.324
314.593
315.045
315.39
315.508
315.714
315.914
316.037
316.144
316.311
316.2
316.213
316.056
315.937
315.822
315.483
315.323
314.889
314.732
314.487
308.598
308.802
309.078
309.25
309.312
309.437
309.543
309.66
309.686
309.799
309.743
309.745
309.66
309.551
309.515
309.3
309.193
308.986
308.858
308.735
302.876
302.946
303.06
303.104
303.127
303.148
303.21
303.25
303.265
303.298
303.252
303.267
303.246
303.202
303.199
303.13
303.076
303.016
302.96
302.939
343.299
344.301
345.388
346.071
346.968
347.73
348.288
349.002
349.066
349.258
349.135
348.942
348.749
348.188
347.912
347.022
346.342
345.382
344.443
343.425
337.686
338.516
339.477
340.05
340.819
341.509
342.041
342.616
342.731
342.847
342.754
342.58
342.435
341.94
341.647
340.904
340.287
339.537
338.685
337.766
332.033
332.728
333.478
334.005
334.652
335.223
335.687
336.174
336.268
336.317
336.286
336.12
336.022
335.6
335.285
334.703
334.137
333.547
332.831
332.021
326.256
326.869
327.469
327.889
328.402
328.836
329.279
329.695
329.779
329.768
329.804
329.572
329.532
329.201
328.92
328.438
328.005
327.502
326.922
326.305
320.438
320.984
321.403
321.718
322.157
322.393
322.802
323.132
323.269
323.208
323.289
323.076
322.984
322.782
322.565
322.125
321.81
321.444
320.984
320.52
314.632
314.983
315.333
315.525
315.864
315.97
316.271
316.552
316.622
316.579
316.668
316.514
316.471
316.334
316.131
315.784
315.605
315.329
315.016
314.721
308.78
309.008
309.202
309.347
309.575
309.618
309.782
309.955
309.998
309.963
310.033
309.894
309.91
309.846
309.682
309.466
309.398
309.247
309.044
308.863
302.959
303.032
303.087
303.116
303.209
303.217
303.279
303.325
303.352
303.326
303.339
303.32
303.319
303.319
303.235
303.158
303.128
303.107
303.029
303.005
344.314
345.309
346.438
347.156
348.024
349.002
349.49
349.898
350.133
350.313
350.209
350.316
349.802
349.521
348.771
348.119
347.367
346.452
345.276
344.408
338.532
339.407
340.37
340.972
341.743
342.603
343.032
343.414
343.606
343.718
343.62
343.781
343.336
343.042
342.43
341.868
341.172
340.457
339.378
338.663
332.717
333.466
334.235
334.786
335.4
336.138
336.46
336.833
336.985
337.056
336.994
337.144
336.77
336.497
336.023
335.527
334.946
334.369
333.401
332.876
326.835
327.464
328.039
328.522
329.051
329.605
329.85
330.164
330.328
330.355
330.345
330.446
330.143
329.924
329.516
329.14
328.678
328.194
327.377
327.036
320.909
321.395
321.844
322.235
322.664
323.046
323.231
323.495
323.598
323.642
323.66
323.729
323.526
323.311
322.947
322.71
322.366
321.955
321.312
321.104
314.984
315.318
315.624
315.908
316.234
316.497
316.625
316.803
316.868
316.912
316.928
316.956
316.802
316.678
316.402
316.248
316.015
315.704
315.235
315.11
309.032
309.222
309.374
309.601
309.742
309.934
309.972
310.058
310.143
310.185
310.194
310.197
310.071
310.052
309.835
309.751
309.648
309.427
309.153
309.1
303.017
303.108
303.148
303.231
303.266
303.323
303.341
303.37
303.4
303.396
303.435
303.38
303.391
303.355
303.31
303.256
303.248
303.161
303.07
303.045
345.376
346.203
347.432
348.222
349.092
350.034
350.363
351.028
351.235
351.451
351.399
351.309
350.934
350.437
349.752
349.159
348.315
347.501
346.545
345.52
339.446
340.145
341.23
341.915
342.637
343.504
343.737
344.339
344.545
344.734
344.714
344.602
344.292
343.794
343.205
342.77
342.027
341.39
340.48
339.625
333.487
333.984
335
335.525
336.148
336.886
337.033
337.563
337.832
337.97
337.94
337.825
337.568
337.122
336.596
336.286
335.665
335.136
334.347
333.666
327.469
327.83
328.721
329.116
329.622
330.203
330.361
330.766
331.077
331.108
331.083
331.015
330.785
330.432
330.017
329.795
329.286
328.82
328.16
327.67
321.423
321.678
322.369
322.641
323.051
323.494
323.679
323.932
324.246
324.225
324.219
324.174
323.968
323.738
323.43
323.23
322.82
322.46
321.961
321.612
315.277
315.501
315.996
316.167
316.495
316.803
316.922
317.106
317.407
317.315
317.29
317.315
317.111
316.972
316.798
316.61
316.322
316.098
315.711
315.531
309.16
309.294
309.622
309.709
309.921
310.104
310.154
310.263
310.49
310.388
310.408
310.385
310.265
310.193
310.117
310.007
309.813
309.715
309.445
309.377
303.06
303.126
303.22
303.25
303.334
303.393
303.409
303.429
303.524
303.478
303.493
303.466
303.446
303.419
303.384
303.353
303.3
303.248
303.181
303.158
346.315
347.052
348.426
349.265
350.111
350.875
351.648
352.15
352.569
352.419
352.534
352.457
352.032
351.562
350.903
350.182
349.328
348.187
347.328
346.455
340.264
340.878
342.047
342.813
343.538
344.207
344.849
345.353
345.724
345.573
345.691
345.657
345.251
344.882
344.25
343.673
342.918
341.895
341.152
340.429
334.185
334.672
335.657
336.289
336.915
337.49
338.02
338.493
338.774
338.669
338.776
338.812
338.388
338.072
337.528
337.095
336.403
335.573
334.916
334.342
328.053
328.408
329.236
329.67
330.25
330.749
331.168
331.595
331.746
331.72
331.791
331.876
331.472
331.227
330.776
330.418
329.886
329.183
328.583
328.161
321.849
322.121
322.783
323.058
323.549
323.938
324.276
324.616
324.719
324.734
324.745
324.858
324.531
324.386
324.004
323.696
323.283
322.762
322.286
321.91
315.612
315.789
316.326
316.477
316.837
317.129
317.361
317.642
317.696
317.709
317.674
317.773
317.528
317.449
317.186
316.95
316.625
316.271
315.933
315.669
309.392
309.517
309.857
309.922
310.097
310.305
310.419
310.616
310.63
310.711
310.603
310.677
310.541
310.486
310.348
310.199
309.993
309.791
309.588
309.408
303.142
303.207
303.305
303.316
303.382
303.469
303.492
303.555
303.565
303.622
303.534
303.595
303.517
303.496
303.479
303.398
303.338
303.277
303.224
303.154
347.084
348.172
349.236
350.399
351.125
351.898
352.641
352.998
353.384
353.528
353.427
353.43
353.084
352.436
351.897
351.118
350.296
349.34
348.09
347.342
340.928
341.797
342.775
343.811
344.414
345.144
345.76
346.062
346.384
346.57
346.454
346.459
346.151
345.62
345.124
344.444
343.761
342.936
341.853
341.216
334.712
335.435
336.28
337.139
337.665
338.263
338.761
339.09
339.323
339.504
339.43
339.433
339.111
338.718
338.273
337.698
337.168
336.453
335.568
335.016
328.431
329.058
329.765
330.409
330.857
331.356
331.777
332.053
332.222
332.423
332.308
332.357
332.077
331.8
331.411
330.915
330.484
329.898
329.186
328.763
322.154
322.656
323.204
323.671
324.058
324.417
324.738
324.957
325.082
325.285
325.173
325.2
324.99
324.796
324.522
324.128
323.734
323.27
322.747
322.417
315.851
316.217
316.588
316.929
317.232
317.485
317.684
317.857
317.925
318.099
318.033
318.001
317.848
317.735
317.553
317.289
316.954
316.625
316.29
316.07
309.514
309.74
309.949
310.148
310.377
310.526
310.608
310.72
310.773
310.892
310.842
310.785
310.711
310.635
310.525
310.419
310.184
309.972
309.785
309.635
303.185
303.262
303.347
303.412
303.479
303.507
303.558
303.59
303.608
303.656
303.648
303.612
303.592
303.562
303.537
303.5
303.413
303.346
303.273
303.244
348.01
348.97
350.279
351.106
351.951
353.002
353.553
353.88
354.291
354.452
354.333
354.305
354.174
353.434
352.743
352.021
351.077
350.117
349.011
347.994
341.736
342.557
343.703
344.404
345.179
346.073
346.57
346.832
347.216
347.325
347.207
347.228
347.102
346.46
345.84
345.226
344.432
343.556
342.621
341.802
335.347
336.108
337.09
337.663
338.326
339.088
339.495
339.728
340.08
340.147
340.058
340.038
339.937
339.409
338.908
338.362
337.689
336.959
336.209
335.509
328.914
329.598
330.415
330.873
331.419
332.022
332.326
332.546
332.875
332.943
332.814
332.804
332.74
332.32
331.915
331.451
330.938
330.309
329.751
329.156
322.447
323.054
323.66
324.042
324.482
324.919
325.106
325.308
325.652
325.697
325.581
325.538
325.509
325.162
324.862
324.549
324.116
323.654
323.186
322.765
316.001
316.496
316.881
317.234
317.509
317.827
317.924
318.068
318.347
318.361
318.278
318.289
318.26
317.972
317.767
317.608
317.249
316.928
316.618
316.327
309.596
309.925
310.126
310.391
310.542
310.709
310.763
310.853
311.038
310.996
311.001
311.006
310.984
310.8
310.661
310.616
310.373
310.181
309.968
309.815
303.225
303.32
303.393
303.492
303.533
303.562
303.606
303.618
303.691
303.681
303.689
303.686
303.662
303.607
303.566
303.568
303.469
303.441
303.342
303.29
348.818
349.721
351.043
351.996
352.997
353.802
354.28
354.791
355.023
355.468
355.379
355.168
355.006
354.348
353.627
352.887
352.102
350.922
349.803
348.646
342.484
343.173
344.394
345.201
346.064
346.775
347.171
347.64
347.852
348.211
348.132
347.958
347.849
347.281
346.622
345.983
345.319
344.293
343.301
342.391
336.086
336.596
337.706
338.318
339.074
339.673
339.974
340.432
340.677
340.882
340.819
340.679
340.587
340.111
339.538
338.978
338.458
337.581
336.72
336.028
329.596
329.991
330.912
331.375
332.025
332.552
332.768
333.148
333.417
333.52
333.488
333.346
333.278
332.85
332.446
331.961
331.524
330.833
330.141
329.54
323.016
323.377
324.049
324.424
324.972
325.361
325.543
325.849
326.08
326.124
326.072
325.987
325.953
325.575
325.308
324.94
324.604
324.016
323.462
323.061
316.459
316.711
317.238
317.461
317.819
318.112
318.268
318.538
318.673
318.686
318.629
318.569
318.595
318.276
318.132
317.878
317.61
317.17
316.77
316.538
309.898
310.085
310.367
310.482
310.692
310.88
310.969
311.149
311.215
311.203
311.18
311.18
311.157
310.957
310.905
310.763
310.581
310.302
310.082
309.975
303.327
303.388
303.465
303.529
303.604
303.654
303.688
303.744
303.746
303.761
303.772
303.777
303.732
303.658
303.653
303.614
303.549
303.45
303.383
303.342
349.605
350.514
351.824
352.614
353.577
354.31
355.068
355.589
355.938
356.158
356.056
355.939
355.819
355.3
354.333
353.707
352.647
351.431
350.483
349.432
343.162
343.867
345.062
345.728
346.547
347.18
347.881
348.373
348.677
348.857
348.704
348.606
348.558
348.106
347.266
346.722
345.79
344.741
343.925
343.051
336.674
337.164
338.225
338.781
339.447
339.974
340.608
341.016
341.322
341.514
341.262
341.273
341.204
340.819
340.123
339.647
338.86
337.98
337.344
336.568
330.117
330.396
331.343
331.751
332.333
332.826
333.315
333.627
333.886
334.067
333.789
333.866
333.8
333.483
332.902
332.501
331.887
331.17
330.651
330.012
323.483
323.643
324.428
324.728
325.206
325.554
325.978
326.182
326.399
326.58
326.289
326.377
326.317
326.03
325.684
325.318
324.853
324.299
323.906
323.387
316.796
316.947
317.49
317.7
318.031
318.296
318.561
318.739
318.914
319.049
318.759
318.929
318.799
318.615
318.385
318.132
317.785
317.406
317.112
316.721
310.124
310.223
310.466
310.636
310.833
311.035
311.161
311.26
311.391
311.453
311.263
311.402
311.28
311.149
311.049
310.881
310.691
310.47
310.3
310.058
303.405
303.412
303.504
303.58
303.646
303.689
303.726
303.772
303.838
303.855
303.768
303.824
303.773
303.72
303.711
303.665
303.563
303.491
303.457
303.399
350.16
351.121
352.217
353.209
354.293
354.989
355.861
356.438
356.877
357.04
356.614
356.732
356.47
355.864
354.964
354.175
353.302
352.221
351.247
350.167
343.605
344.419
345.409
346.233
347.193
347.733
348.556
349.05
349.487
349.567
349.18
349.333
349.136
348.603
347.798
347.164
346.367
345.425
344.607
343.649
337.052
337.646
338.477
339.211
340.06
340.484
341.187
341.608
342.033
342.017
341.707
341.874
341.721
341.225
340.556
340.043
339.359
338.528
337.847
336.989
330.388
330.863
331.504
332.157
332.889
333.156
333.733
334.137
334.476
334.398
334.201
334.359
334.275
333.839
333.258
332.862
332.315
331.597
331.04
330.287
323.692
324.023
324.542
325.052
325.652
325.866
326.28
326.59
326.848
326.765
326.641
326.783
326.735
326.349
325.9
325.596
325.24
324.633
324.174
323.537
316.95
317.178
317.555
317.902
318.375
318.555
318.821
319.04
319.221
319.139
319.101
319.175
319.118
318.831
318.498
318.323
318.128
317.638
317.298
316.83
310.174
310.328
310.569
310.754
311.04
311.186
311.338
311.452
311.559
311.501
311.483
311.546
311.479
311.271
311.101
311.012
310.925
310.578
310.41
310.123
303.393
303.442
303.559
303.603
303.717
303.762
303.822
303.838
303.88
303.856
303.853
303.878
303.855
303.766
303.72
303.683
303.657
303.551
303.496
303.385
350.868
351.739
352.786
353.78
354.989
355.766
356.479
356.948
357.509
357.429
357.457
357.479
357.04
356.506
355.602
354.952
353.975
352.752
351.56
350.355
344.243
344.967
345.85
346.67
347.794
348.476
349.118
349.514
350.01
349.939
349.931
350.031
349.639
349.138
348.374
347.805
346.924
345.911
344.851
343.834
337.544
338.184
338.858
339.565
340.516
341.084
341.684
341.961
342.431
342.374
342.374
342.459
342.152
341.724
341.024
340.557
339.84
338.898
338.062
337.258
330.832
331.33
331.8
332.405
333.152
333.662
334.211
334.367
334.83
334.723
334.773
334.805
334.587
334.236
333.639
333.272
332.716
331.955
331.239
330.597
324.049
324.448
324.761
325.282
325.798
326.223
326.659
326.757
327.141
327.007
327.097
327.094
326.975
326.687
326.199
325.938
325.52
324.945
324.308
323.878
317.23
317.545
317.714
318.098
318.432
318.734
319.068
319.113
319.422
319.311
319.401
319.374
319.303
319.052
318.79
318.591
318.295
317.896
317.357
317.108
310.334
310.541
310.665
310.877
311.043
311.25
311.453
311.496
311.66
311.583
311.67
311.627
311.616
311.449
311.333
311.188
311.029
310.775
310.405
310.278
303.452
303.556
303.57
303.636
303.698
303.777
303.823
303.86
303.927
303.872
303.921
303.894
303.901
303.843
303.815
303.763
303.709
303.619
303.502
303.44
351.129
352.149
353.395
354.452
355.642
356.385
357.066
357.649
357.942
357.986
357.883
357.915
357.382
357.027
356.266
355.564
354.41
353.196
352.016
350.804
344.441
345.351
346.395
347.303
348.348
349.027
349.602
350.114
350.354
350.398
350.312
350.366
349.914
349.593
348.923
348.313
347.315
346.303
345.278
344.257
337.71
338.498
339.334
340.091
340.983
341.563
342.086
342.471
342.709
342.759
342.675
342.724
342.372
342.062
341.478
341.045
340.148
339.351
338.423
337.597
330.922
331.533
332.237
332.848
333.559
334.071
334.511
334.787
335.02
335.092
335.002
335.022
334.767
334.453
333.96
333.638
332.97
332.339
331.537
330.852
324.062
324.584
325.121
325.606
326.147
326.529
326.876
327.102
327.259
327.335
327.266
327.275
327.106
326.873
326.464
326.208
325.71
325.234
324.596
324.064
317.168
317.628
317.973
318.359
318.71
318.939
319.184
319.377
319.514
319.561
319.51
319.472
319.412
319.25
318.957
318.737
318.384
318.072
317.566
317.209
310.316
310.599
310.796
311.056
311.262
311.348
311.52
311.612
311.714
311.76
311.74
311.676
311.689
311.563
311.389
311.238
311.02
310.863
310.523
310.326
303.461
303.544
303.624
303.715
303.773
303.826
303.839
303.908
303.927
303.936
303.937
303.921
303.932
303.879
303.801
303.759
303.692
303.648
303.538
303.451
351.532
352.393
353.929
354.846
355.996
356.8
357.579
358.163
358.291
358.26
358.206
358.326
357.844
357.352
356.604
355.887
355.076
353.727
352.546
351.197
344.791
345.522
346.871
347.651
348.688
349.343
350.077
350.568
350.648
350.603
350.6
350.737
350.257
349.885
349.22
348.605
347.901
346.724
345.707
344.546
337.994
338.566
339.78
340.396
341.318
341.855
342.516
342.846
342.964
342.905
342.919
343.031
342.632
342.332
341.787
341.209
340.617
339.736
338.806
337.844
331.183
331.586
332.634
333.114
333.886
334.347
334.874
335.09
335.271
335.206
335.198
335.273
334.961
334.712
334.267
333.775
333.301
332.613
331.822
331.105
324.324
324.577
325.451
325.845
326.421
326.793
327.182
327.323
327.468
327.513
327.455
327.491
327.29
327.041
326.676
326.319
325.943
325.426
324.78
324.279
317.42
317.568
318.231
318.494
318.891
319.138
319.459
319.581
319.665
319.723
319.655
319.66
319.535
319.342
319.089
318.86
318.566
318.187
317.696
317.376
310.475
310.576
310.964
311.12
311.344
311.477
311.718
311.768
311.82
311.877
311.793
311.853
311.731
311.624
311.464
311.381
311.14
310.907
310.645
310.438
303.514
303.559
303.664
303.751
303.803
303.849
303.935
303.958
303.968
303.989
303.938
303.969
303.941
303.888
303.849
303.81
303.723
303.664
303.583
303.496
351.916
352.888
354.215
355.034
356.345
357.234
357.771
358.352
358.545
358.835
358.705
358.721
358.239
357.9
357.089
356.168
355.379
354.175
352.903
351.688
345.164
345.957
347.102
347.831
348.993
349.775
350.219
350.726
350.876
351.173
351.047
351.11
350.641
350.329
349.675
348.847
348.225
347.101
346.03
345.021
338.33
339
339.888
340.564
341.528
342.231
342.633
343.021
343.156
343.42
343.351
343.372
342.966
342.687
342.129
341.474
340.966
339.929
339.051
338.298
331.451
331.945
332.688
333.245
334.042
334.605
334.951
335.302
335.347
335.588
335.555
335.568
335.2
335.001
334.555
334.047
333.578
332.725
332.061
331.478
324.497
324.861
325.438
325.909
326.506
326.936
327.222
327.528
327.552
327.692
327.707
327.714
327.429
327.246
326.898
326.557
326.175
325.471
325.013
324.559
317.53
317.759
318.177
318.546
318.935
319.246
319.481
319.711
319.722
319.796
319.857
319.827
319.615
319.482
319.275
319.031
318.673
318.201
317.911
317.583
310.531
310.676
310.942
311.157
311.38
311.521
311.706
311.877
311.822
311.921
311.947
311.924
311.78
311.706
311.594
311.442
311.195
310.927
310.769
310.613
303.52
303.574
303.679
303.737
303.826
303.878
303.919
303.977
303.953
303.989
303.988
304.021
303.939
303.909
303.881
303.821
303.76
303.68
303.606
303.586
351.826
352.907
354.044
355.389
356.725
357.501
358.11
358.486
358.846
358.944
359.159
358.917
358.454
358.099
357.462
356.341
355.606
354.243
353.123
351.886
345.028
345.969
346.91
348.093
349.292
349.945
350.493
350.859
351.137
351.211
351.442
351.232
350.845
350.534
349.969
349.023
348.37
347.208
346.227
345.184
338.183
338.972
339.734
340.807
341.777
342.335
342.814
343.121
343.358
343.416
343.662
343.444
343.153
342.86
342.365
341.599
341.087
340.076
339.254
338.38
331.244
331.941
332.546
333.451
334.216
334.689
335.119
335.301
335.525
335.584
335.796
335.628
335.353
335.131
334.733
334.079
333.702
332.907
332.212
331.471
324.344
324.896
325.381
326.002
326.633
327.026
327.382
327.507
327.659
327.74
327.912
327.753
327.532
327.35
327.044
326.56
326.236
325.702
325.158
324.534
317.446
317.802
318.192
318.546
319.072
319.372
319.592
319.687
319.802
319.885
319.966
319.829
319.682
319.518
319.297
319.045
318.723
318.406
317.996
317.565
310.529
310.702
310.929
311.141
311.477
311.657
311.771
311.879
311.912
311.967
312.043
311.888
311.801
311.717
311.588
311.493
311.224
311.073
310.798
310.575
303.539
303.583
303.668
303.734
303.845
303.93
303.961
303.991
303.995
303.998
304.044
303.97
303.956
303.911
303.908
303.85
303.777
303.731
303.613
303.56
351.811
353.102
354.361
355.617
356.8
357.535
358.315
358.639
358.937
359.156
359.026
358.881
358.547
358.276
357.46
356.543
355.735
354.241
353.161
352.062
345.005
346.095
347.191
348.305
349.37
350.024
350.687
350.972
351.206
351.458
351.299
351.222
350.896
350.637
349.977
349.202
348.443
347.221
346.283
345.346
338.18
339.083
339.988
340.926
341.904
342.43
342.958
343.284
343.432
343.683
343.487
343.46
343.143
342.914
342.394
341.766
341.055
340.117
339.367
338.524
331.274
332.03
332.718
333.547
334.31
334.834
335.203
335.533
335.6
335.816
335.658
335.643
335.376
335.174
334.732
334.221
333.621
332.906
332.327
331.634
324.361
324.952
325.452
326.133
326.741
327.138
327.45
327.694
327.748
327.917
327.805
327.793
327.55
327.361
327.024
326.674
326.142
325.674
325.201
324.721
317.438
317.843
318.197
318.723
319.115
319.428
319.619
319.819
319.872
319.986
319.891
319.905
319.72
319.564
319.343
319.087
318.692
318.395
318.011
317.737
310.505
310.743
310.928
311.303
311.515
311.682
311.794
311.902
311.962
311.995
311.969
311.979
311.82
311.781
311.633
311.465
311.203
311.061
310.828
310.682
303.534
303.612
303.643
303.807
303.871
303.92
303.959
303.967
304.012
304.003
304.015
304.014
303.968
303.946
303.904
303.83
303.747
303.711
303.617
303.569
352.039
353.302
354.474
355.676
356.978
357.605
358.354
358.775
359.021
359.239
359.143
358.957
358.722
358.272
357.464
356.602
355.746
354.481
353.132
352.046
345.252
346.305
347.318
348.348
349.535
350.061
350.73
351.084
351.289
351.513
351.421
351.259
351.062
350.645
349.973
349.234
348.511
347.463
346.236
345.338
338.438
339.274
340.157
340.961
342.002
342.475
342.984
343.295
343.48
343.677
343.642
343.472
343.35
342.958
342.413
341.784
341.133
340.281
339.214
338.499
331.51
332.17
332.892
333.541
334.466
334.825
335.214
335.471
335.645
335.775
335.795
335.663
335.533
335.216
334.772
334.246
333.721
333.078
332.146
331.61
324.538
325.069
325.622
326.115
326.864
327.094
327.426
327.628
327.766
327.832
327.913
327.811
327.679
327.462
327.112
326.629
326.244
325.815
325.036
324.627
317.557
317.933
318.332
318.693
319.23
319.372
319.614
319.759
319.834
319.912
319.989
319.922
319.816
319.637
319.4
319.005
318.765
318.499
317.907
317.576
310.555
310.762
310.996
311.238
311.544
311.655
311.785
311.847
311.913
311.975
312.017
312.006
311.919
311.809
311.638
311.419
311.281
311.119
310.734
310.544
303.547
303.595
303.675
303.783
303.851
303.9
303.952
303.968
303.994
304.015
304.033
304.017
303.998
303.962
303.887
303.818
303.777
303.732
303.575
303.544
352.016
353.28
354.536
355.573
356.817
357.452
358.141
358.776
359.007
359.319
359.441
359.12
358.664
358.249
357.458
356.699
355.75
354.518
353.16
352.135
345.24
346.318
347.414
348.278
349.381
349.96
350.488
351.026
351.277
351.595
351.657
351.424
350.992
350.655
349.973
349.317
348.493
347.435
346.298
345.376
338.376
339.296
340.23
340.914
341.914
342.422
342.784
343.261
343.488
343.774
343.821
343.622
343.262
342.951
342.442
341.834
341.156
340.298
339.338
338.558
331.487
332.229
333.013
333.519
334.378
334.827
335.025
335.508
335.632
335.857
335.939
335.796
335.469
335.18
334.788
334.291
333.757
333.082
332.269
331.663
324.533
325.162
325.749
326.122
326.781
327.162
327.237
327.663
327.771
327.949
328.006
327.903
327.617
327.393
327.096
326.725
326.26
325.779
325.188
324.671
317.549
318.059
318.429
318.671
319.154
319.418
319.431
319.786
319.867
320.023
320.013
319.98
319.784
319.6
319.375
319.144
318.827
318.407
318.033
317.642
310.556
310.921
311.14
311.223
311.543
311.702
311.659
311.876
311.948
312.05
312.012
312.006
311.918
311.773
311.657
311.506
311.326
311.039
310.824
310.593
303.542
303.649
303.744
303.784
303.873
303.936
303.903
303.978
304.025
304.072
304.037
304.037
303.992
303.947
303.884
303.86
303.8
303.701
303.635
303.545
351.965
353.437
354.417
355.667
356.879
357.298
358.162
358.876
358.991
359.283
359.337
359.099
358.671
358.025
357.334
356.577
355.506
354.359
352.998
352.045
345.217
346.444
347.327
348.435
349.454
349.817
350.527
351.162
351.288
351.556
351.596
351.393
350.984
350.444
349.89
349.225
348.254
347.318
346.082
345.339
338.387
339.424
340.131
341.089
341.922
342.243
342.857
343.411
343.501
343.738
343.781
343.596
343.255
342.838
342.364
341.77
340.929
340.156
339.114
338.478
331.534
332.324
332.928
333.694
334.382
334.676
335.124
335.599
335.659
335.9
335.89
335.737
335.444
335.144
334.765
334.271
333.592
332.948
332.071
331.562
324.575
325.226
325.683
326.221
326.781
327.054
327.291
327.76
327.78
327.973
327.962
327.814
327.627
327.374
327.055
326.686
326.182
325.687
325.001
324.579
317.595
318.084
318.397
318.698
319.194
319.368
319.496
319.883
319.894
320.055
319.982
319.878
319.756
319.628
319.305
319.099
318.759
318.353
317.855
317.606
310.592
310.872
311.047
311.214
311.562
311.654
311.714
311.941
311.978
312.071
311.986
311.966
311.869
311.782
311.598
311.481
311.245
311.014
310.73
310.585
303.552
303.637
303.685
303.753
303.889
303.921
303.937
303.99
304.023
304.055
304.025
304.023
303.974
303.93
303.913
303.816
303.782
303.708
303.604
303.534
)
;

boundaryField
{
    hotSide
    {
        type            fixedGradient;
        gradient        nonuniform List<scalar> 
400
(
421.063
432.998
444.528
455.602
466.168
476.178
485.584
494.34
502.404
509.734
516.294
522.049
526.969
531.029
534.205
536.481
537.842
538.282
537.795
536.383
432.534
444.804
456.659
468.045
478.911
489.207
498.882
507.89
516.187
523.732
530.485
536.412
541.482
545.667
548.945
551.298
552.712
553.178
552.692
551.256
442.866
455.437
467.584
479.252
490.387
500.939
510.857
520.092
528.6
536.337
543.264
549.346
554.551
558.85
562.22
564.642
566.103
566.594
566.11
564.652
451.991
464.828
477.232
489.148
500.521
511.299
521.43
530.865
539.559
547.466
554.547
560.765
566.088
570.487
573.938
576.423
577.925
578.437
577.955
576.478
459.855
472.919
485.544
497.672
509.249
520.221
530.535
540.142
548.994
557.047
564.26
570.595
576.02
580.504
584.025
586.562
588.1
588.63
588.148
586.655
466.41
479.663
492.47
504.774
516.52
527.652
538.117
547.866
556.849
565.022
572.343
578.775
584.283
588.838
592.416
594.996
596.563
597.108
596.626
595.118
471.62
485.02
497.971
510.413
522.29
533.548
544.131
553.991
563.076
571.343
578.749
585.256
590.829
595.438
599.06
601.673
603.262
603.817
603.335
601.815
475.456
488.963
502.016
514.557
526.529
537.877
548.545
558.483
567.642
575.975
583.441
590.001
595.62
600.268
603.919
606.555
608.158
608.72
608.236
606.706
477.901
491.472
504.587
517.187
529.216
540.617
551.336
561.32
570.522
578.895
586.395
592.986
598.63
603.3
606.968
609.616
611.226
611.79
611.302
609.764
478.943
492.536
505.672
518.292
530.339
541.756
552.491
562.49
571.704
580.088
587.599
594.197
599.848
604.522
608.193
610.841
612.451
613.012
612.52
610.975
478.581
492.153
505.268
517.868
529.895
541.293
552.009
561.99
571.187
579.554
587.049
593.632
599.269
603.931
607.591
610.229
611.83
612.384
611.886
610.337
476.82
490.329
503.383
515.923
527.892
539.234
549.897
559.827
568.977
577.3
584.753
591.3
596.904
601.536
605.171
607.789
609.373
609.915
609.41
607.859
473.674
487.079
500.031
512.472
524.345
535.596
546.172
556.02
565.092
573.344
580.732
587.219
592.771
597.358
600.954
603.54
605.101
605.627
605.114
603.562
469.164
482.424
495.234
507.538
519.28
530.405
540.86
550.595
559.561
567.715
575.014
581.42
586.901
591.426
594.97
597.515
599.045
599.551
599.029
597.478
463.32
476.394
489.025
501.155
512.729
523.694
533.997
543.588
552.421
560.451
567.637
573.942
579.333
583.781
587.262
589.756
591.249
591.731
591.198
589.652
456.177
469.029
481.443
493.363
504.735
515.507
525.627
535.047
543.719
551.601
558.652
564.836
570.121
574.477
577.882
580.316
581.765
582.22
581.677
580.137
447.782
460.374
472.536
484.212
495.35
505.899
515.806
525.026
533.513
541.223
548.118
554.163
559.324
563.576
566.893
569.259
570.659
571.084
570.53
568.999
438.187
450.485
462.361
473.762
484.635
494.93
504.598
513.592
521.869
529.386
536.106
541.993
547.017
551.15
554.371
556.661
558.006
558.399
557.835
556.316
427.453
439.425
450.985
462.079
472.658
482.673
492.075
500.821
508.865
516.169
522.695
528.409
533.281
537.285
540.399
542.607
543.894
544.252
543.679
542.176
415.651
427.267
438.48
449.241
459.499
469.209
478.322
486.796
494.588
501.66
507.976
513.502
518.21
522.075
525.075
527.194
528.419
528.742
528.161
526.676
)
;
    }
    coldSide
    {
        type            mixed;
        refValue        uniform 300;
        refGradient     uniform 0;
        valueFraction   uniform 0.991591;
        source          uniform 0;
        value           nonuniform List<scalar> 
400
(
300.024
300.024
300.025
300.025
300.026
300.026
300.027
300.027
300.028
300.029
300.029
300.029
300.029
300.03
300.03
300.03
300.03
300.03
300.03
300.03
300.025
300.025
300.025
300.026
300.026
300.027
300.027
300.028
300.028
300.029
300.029
300.03
300.03
300.03
300.03
300.03
300.03
300.03
300.031