/*--------------------------------*- C++ -*----------------------------------*\
| =========                 |                                                 |
| \\      /  F ield         | OpenFOAM: The Open Source CFD Toolbox           |
|  \\    /   O peration     | Version:  2212                                  |
|   \\  /    A nd           | Website:  www.openfoam.com                      |
|    \\/     M anipulation  |                                                 |
\*---------------------------------------------------------------------------*/
FoamFile
{
    version     2.0;
    format      ascii;
    arch        "LSB;label=32;scalar=64";
    class       volScalarField;
    location    "0";
    object      T;
}
// * * * * * * * * * * * * * * * * * * * * * * * * * * * * * * * * * * * * * //

dimensions      [0 0 0 1 0 0 0];

internalField   nonuniform List<scalar> 
3200
(
345.605
344.85
344.273
344.165
344.638
345.332
346.323
347.008
347.49
348.259
348.173
348.052
347.402
346.599
345.837
344.779
344.236
343.942
344.194
345.05
339.592
338.971
338.49
338.398
338.811
339.393
340.276
340.812
341.267
341.958
341.877
341.766
341.205
340.507
339.862
338.958
338.499
338.227
338.434
339.144
333.544
333.043
332.649
332.561
332.934
333.413
334.168
334.605
334.979
335.589
335.537
335.416
334.931
334.342
333.821
333.054
332.696
332.434
332.625
333.192
327.464
327.106
326.774
326.697
327.016
327.379
328.007
328.352
328.68
329.165
329.156
329.04
328.625
328.144
327.749
327.105
326.822
326.616
326.739
327.205
321.384
321.115
320.858
320.811
321.042
321.323
321.813
322.075
322.362
322.718
322.724
322.642
322.312
321.904
321.648
321.119
320.935
320.765
320.829
321.2
315.306
315.102
314.928
314.877
315.04
315.239
315.59
315.782
316.011
316.251
316.267
316.209
315.984
315.661
315.513
315.109
315.008
314.868
314.914
315.189
309.204
309.077
308.96
308.946
309.041
309.142
309.361
309.476
309.642
309.776
309.781
309.732
309.627
309.417
309.35
309.084
309.039
308.958
308.977
309.133
303.089
303.044
303.011
302.999
303.03
303.063
303.135
303.174
303.234
303.278
303.29
303.271
303.228
303.17
303.137
303.036
303.038
303.018
303.01
303.06
345.65
344.83
344.288
344.262
344.788
345.56
346.535
347.398
348.03
348.777
348.71
348.53
347.729
346.972
346.14
345.187
344.479
344.013
344.361
345.193
339.657
338.99
338.508
338.47
338.936
339.589
340.443
341.169
341.718
342.391
342.295
342.17
341.481
340.821
340.092
339.312
338.692
338.306
338.59
339.303
333.643
333.086
332.659
332.628
333.02
333.588
334.297
334.893
335.376
335.938
335.876
335.764
335.18
334.637
334.008
333.365
332.837
332.535
332.76
333.359
327.57
327.146
326.779
326.734
327.069
327.523
328.102
328.577
329.014
329.467
329.409
329.307
328.84
328.393
327.886
327.363
326.949
326.722
326.895
327.393
321.498
321.157
320.856
320.811
321.101
321.428
321.897
322.253
322.608
322.959
322.884
322.816
322.476
322.135
321.722
321.307
321.029
320.843
320.99
321.358
315.396
315.134
314.905
314.873
315.116
315.327
315.669
315.931
316.162
316.431
316.352
316.315
316.091
315.842
315.533
315.222
315.069
314.919
315.017
315.289
309.258
309.106
308.954
308.924
309.123
309.204
309.426
309.588
309.708
309.888
309.837
309.795
309.675
309.516
309.348
309.161
309.055
308.983
309.03
309.185
303.111
303.057
302.99
302.995
303.055
303.084
303.16
303.207
303.252
303.311
303.305
303.287
303.248
303.192
303.126
303.076
303.035
303.016
303.026
303.076
345.985
345.045
344.571
344.525
345.206
346.004
346.994
348.025
348.703
349.418
349.5
349.262
348.552
347.734
346.675
345.436
344.828
344.379
344.692
345.556
339.942
339.167
338.757
338.691
339.278
339.988
340.827
341.735
342.307
342.931
342.986
342.78
342.179
341.505
340.558
339.507
339.002
338.616
338.888
339.615
333.842
333.224
332.884
332.824
333.302
333.922
334.618
335.391
335.865
336.432
336.445
336.273
335.771
335.208
334.386
333.549
333.111
332.783
333.036
333.641
327.715
327.255
326.949
326.89
327.314
327.818
328.363
329.009
329.376
329.86
329.848
329.744
329.336
328.859
328.185
327.511
327.151
326.914
327.135
327.599
321.573
321.231
320.991
320.946
321.28
321.689
322.1
322.589
322.861
323.243
323.223
323.147
322.86
322.461
321.953
321.446
321.169
320.98
321.164
321.508
315.419
315.2
315.01
314.983
315.227
315.539
315.821
316.134
316.326
316.607
316.627
316.549
316.368
316.054
315.707
315.326
315.158
315.013
315.147
315.386
309.259
309.139
309.038
309.013
309.162
309.361
309.517
309.693
309.793
309.981
309.984
309.931
309.84
309.643
309.432
309.2
309.116
309.037
309.115
309.255
303.101
303.066
303.031
303.02
303.065
303.146
303.194
303.243
303.287
303.341
303.349
303.312
303.302
303.229
303.157
303.089
303.049
303.035
303.045
303.102
346.243
345.372
344.98
345.1
345.709
346.614
347.651
348.69
349.543
350.242
350.306
350.082
349.476
348.541
347.402
346.216
345.505
344.975
345.218
345.968
340.155
339.47
339.113
339.209
339.732
340.513
341.382
342.296
343.033
343.614
343.678
343.47
342.972
342.174
341.191
340.202
339.585
339.126
339.334
339.972
334.048
333.518
333.185
333.27
333.709
334.345
335.071
335.85
336.48
336.978
337.019
336.841
336.439
335.759
334.906
334.125
333.603
333.184
333.386
333.921
327.872
327.496
327.22
327.295
327.633
328.134
328.739
329.392
329.897
330.307
330.314
330.193
329.868
329.298
328.586
327.983
327.567
327.206
327.367
327.815
321.68
321.422
321.211
321.276
321.529
321.922
322.398
322.902
323.295
323.625
323.617
323.539
323.26
322.802
322.256
321.817
321.472
321.187
321.339
321.684
315.488
315.315
315.173
315.215
315.391
315.681
316.029
316.37
316.658
316.899
316.905
316.863
316.64
316.299
315.915
315.605
315.353
315.158
315.266
315.531
309.3
309.208
309.126
309.152
309.246
309.424
309.647
309.821
309.999
310.144
310.15
310.142
309.99
309.783
309.568
309.373
309.227
309.113
309.178
309.333
303.119
303.095
303.061
303.069
303.104
303.146
303.239
303.277
303.351
303.399
303.395
303.395
303.349
303.277
303.208
303.14
303.099
303.063
303.082
303.132
346.782
346.004
345.636
345.658
346.384
347.252
348.435
349.509
350.484
351.277
351.365
351.106
350.578
349.548
348.283
347.037
346.328
345.802
345.855
346.548
340.629
339.982
339.665
339.686
340.322
341.061
342.066
343.003
343.823
344.516
344.564
344.365
343.926
343.052
341.958
340.883
340.311
339.835
339.883
340.465
334.433
333.917
333.637
333.65
334.217
334.81
335.668
336.459
337.135
337.705
337.735
337.609
337.232
336.507
335.572
334.697
334.2
333.816
333.842
334.339
328.221
327.805
327.583
327.606
328.036
328.545
329.232
329.877
330.409
330.866
330.915
330.832
330.521
329.909
329.164
328.462
328.037
327.718
327.764
328.187
321.988
321.648
321.501
321.533
321.829
322.242
322.769
323.26
323.678
324.026
324.081
324.033
323.773
323.298
322.737
322.176
321.835
321.585
321.652
321.965
315.736
315.475
315.37
315.402
315.613
315.902
316.292
316.625
316.938
317.187
317.224
317.215
316.987
316.663
316.273
315.874
315.616
315.428
315.483
315.728
309.461
309.302
309.232
309.262
309.385
309.558
309.778
309.995
310.194
310.326
310.344
310.341
310.211
310.014
309.783
309.561
309.365
309.285
309.303
309.458
303.172
303.116
303.099
303.094
303.147
303.201
303.275
303.346
303.422
303.451
303.463
303.463
303.42
303.366
303.272
303.217
303.136
303.116
303.12
303.167
347.486
346.635
346.384
346.552
347.151
348.093
349.311
350.422
351.428
352.27
352.432
352.281
351.72
350.551
349.278
348.097
347.221
346.688
346.648
347.25
341.238
340.502
340.31
340.433
340.965
341.774
342.808
343.793
344.641
345.367
345.507
345.371
344.941
343.902
342.786
341.816
341.048
340.617
340.551
341.036
334.957
334.342
334.176
334.281
334.744
335.411
336.289
337.112
337.83
338.44
338.565
338.425
338.097
337.203
336.266
335.501
334.824
334.487
334.41
334.795
328.65
328.149
328.015
328.097
328.474
329.028
329.743
330.403
330.983
331.464
331.602
331.439
331.22
330.485
329.716
329.141
328.553
328.292
328.208
328.53
322.326
321.924
321.825
321.888
322.185
322.628
323.151
323.677
324.119
324.48
324.611
324.462
324.303
323.732
323.142
322.721
322.233
322.052
321.944
322.223
315.995
315.658
315.606
315.66
315.877
316.181
316.545
316.911
317.236
317.48
317.595
317.478
317.369
316.966
316.552
316.241
315.887
315.794
315.666
315.896
309.627
309.405
309.371
309.414
309.553
309.727
309.945
310.149
310.349
310.48
310.586
310.49
310.433
310.182
309.955
309.757
309.533
309.502
309.395
309.569
303.234
303.149
303.134
303.164
303.208
303.257
303.336
303.402
303.477
303.51
303.559
303.52
303.504
303.41
303.343
303.277
303.191
303.191
303.157
303.208
348.161
347.545
347.22
347.381
348.001
349.035
350.262
351.378
352.597
353.401
353.69
353.455
352.809
351.704
350.312
349.093
348.197
347.758
347.659
348.007
341.809
341.314
341.027
341.144
341.703
342.608
343.634
344.608
345.635
346.359
346.589
346.389
345.847
344.882
343.676
342.652
341.86
341.525
341.425
341.699
335.42
335.04
334.776
334.875
335.363
336.112
336.989
337.789
338.638
339.287
339.466
339.271
338.866
338.022
337.019
336.173
335.479
335.226
335.131
335.352
329.008
328.722
328.491
328.573
328.979
329.601
330.303
330.946
331.62
332.176
332.318
332.171
331.867
331.146
330.331
329.637
329.046
328.891
328.781
328.981
322.593
322.352
322.184
322.263
322.592
323.082
323.604
324.072
324.625
325.042
325.158
325.052
324.824
324.244
323.624
323.073
322.638
322.517
322.41
322.578
316.154
315.978
315.854
315.922
316.17
316.523
316.882
317.219
317.614
317.881
317.98
317.916
317.773
317.347
316.898
316.506
316.205
316.115
316.037
316.187
309.691
309.602
309.516
309.572
309.721
309.925
310.145
310.355
310.584
310.727
310.801
310.759
310.69
310.418
310.167
309.925
309.735
309.686
309.634
309.749
303.255
303.222
303.186
303.2
303.26
303.327
303.395
303.475
303.553
303.587
303.626
303.597
303.574
303.487
303.398
303.312
303.27
303.25
303.223
303.269
349.109
348.444
348.263
348.44
348.928
349.974
351.144
352.431
353.693
354.539
354.86
354.616
353.847
352.696
351.473
350.176
349.295
348.793
348.673
349.14
342.644
342.091
341.924
342.082
342.517
343.381
344.413
345.506
346.597
347.357
347.619
347.405
346.748
345.763
344.706
343.574
342.823
342.416
342.304
342.67
336.14
335.691
335.538
335.679
336.052
336.768
337.646
338.556
339.485
340.121
340.344
340.177
339.599
338.778
337.898
336.934
336.303
335.985
335.886
336.168
329.606
329.267
329.125
329.248
329.551
330.125
330.876
331.594
332.338
332.88
333.058
332.918
332.441
331.762
331.058
330.274
329.761
329.509
329.413
329.642
323.066
322.807
322.705
322.795
322.999
323.458
324.051
324.621
325.19
325.602
325.755
325.624
325.265
324.723
324.189
323.583
323.182
322.997
322.929
323.084
316.514
316.323
316.231
316.313
316.446
316.781
317.205
317.608
318.025
318.305
318.416
318.315
318.086
317.673
317.293
316.863
316.589
316.443
316.391
316.536
309.929
309.8
309.764
309.809
309.886
310.081
310.343
310.58
310.836
311.002
311.072
311.018
310.877
310.62
310.4
310.133
309.974
309.869
309.842
309.964
303.327
303.282
303.278
303.282
303.31
303.376
303.468
303.546
303.628
303.691
303.712
303.697
303.649
303.552
303.488
303.395
303.341
303.305
303.302
303.343
350.131
349.532
349.243
349.467
349.958
350.894
352.017
353.471
354.51
355.431
355.877
355.6
354.938
353.781
352.528
351.18
350.484
349.839
349.724
350.202
343.516
343.025
342.776
342.973
343.381
344.188
345.16
346.423
347.31
348.107
348.467
348.231
347.658
346.679
345.605
344.442
343.859
343.309
343.206
343.611
336.909
336.475
336.266
336.442
336.763
337.456
338.274
339.342
340.096
340.746
341.035
340.833
340.373
339.516
338.65
337.676
337.171
336.731
336.632
336.974
330.242
329.894
329.724
329.871
330.146
330.684
331.366
332.212
332.866
333.378
333.588
333.436
333.062
332.368
331.669
330.874
330.458
330.142
330.011
330.299
323.555
323.29
323.149
323.274
323.473
323.905
324.418
325.072
325.587
325.992
326.152
326.027
325.728
325.218
324.668
324.06
323.715
323.505
323.382
323.599
316.846
316.662
316.54
316.66
316.784
317.099
317.458
317.916
318.313
318.59
318.668
318.602
318.39
318.038
317.648
317.23
316.971
316.834
316.719
316.864
310.125
310.015
309.924
310.011
310.075
310.278
310.49
310.771
311.02
311.176
311.185
311.178
311.054
310.83
310.597
310.359
310.197
310.13
310.07
310.12
303.396
303.348
303.318
303.355
303.368
303.442
303.518
303.607
303.697
303.747
303.746
303.749
303.7
303.627
303.554
303.481
303.416
303.405
303.375
303.392
351.149
350.525
350.206
350.44
351.089
351.971
353.038
354.419
355.485
356.358
356.714
356.7
355.908
354.943
353.465
352.331
351.458
350.931
350.923
351.372
344.412
343.879
343.6
343.805
344.346
345.109
346.037
347.24
348.149
348.883
349.186
349.156
348.514
347.68
346.432
345.447
344.728
344.238
344.249
344.621
337.654
337.213
336.973
337.151
337.574
338.192
339.01
340.021
340.81
341.412
341.676
341.619
341.085
340.38
339.363
338.529
337.958
337.486
337.537
337.81
330.859
330.492
330.309
330.43
330.779
331.276
331.962
332.792
333.436
333.917
334.141
334.078
333.625
333.051
332.269
331.586
331.122
330.74
330.751
330.972
324.016
323.738
323.606
323.689
323.978
324.349
324.887
325.533
326.038
326.413
326.603
326.543
326.149
325.714
325.158
324.594
324.244
323.945
323.962
324.115
317.159
316.974
316.886
316.933
317.149
317.412
317.796
318.281
318.616
318.886
319.027
318.98
318.695
318.371
318.022
317.582
317.338
317.119
317.135
317.234
310.312
310.195
310.136
310.178
310.32
310.467
310.681
310.984
311.18
311.36
311.44
311.38
311.233
311.039
310.833
310.576
310.415
310.276
310.296
310.356
303.46
303.414
303.398
303.408
303.473
303.514
303.581
303.684
303.747
303.815
303.836
303.801
303.773
303.695
303.629
303.545
303.499
303.43
303.45
303.473
352.138
351.659
351.42
351.479
352.121
352.862
353.952
355.266
356.365
357.184
357.676
357.497
356.779
355.809
354.481
353.436
352.598
352.01
352.144
352.513
345.246
344.845
344.654
344.717
345.25
345.898
346.813
347.96
348.911
349.626
350.04
349.879
349.274
348.457
347.291
346.412
345.695
345.178
345.294
345.586
338.314
337.999
337.85
337.911
338.373
338.888
339.641
340.635
341.437
342.039
342.384
342.238
341.726
341.077
340.099
339.336
338.761
338.272
338.389
338.644
331.379
331.137
331.007
331.075
331.435
331.854
332.462
333.263
333.947
334.426
334.713
334.589
334.191
333.647
332.865
332.218
331.761
331.355
331.466
331.657
324.434
324.258
324.147
324.197
324.497
324.801
325.266
325.909
326.42
326.806
327.023
326.921
326.633
326.218
325.605
325.082
324.73
324.399
324.498
324.671
317.488
317.37
317.273
317.306
317.514
317.725
318.061
318.512
318.87
319.19
319.324
319.233
319.056
318.753
318.316
317.946
317.692
317.444
317.495
317.636
310.506
310.426
310.376
310.407
310.529
310.657
310.853
311.131
311.321
311.54
311.615
311.552
311.458
311.275
310.999
310.79
310.65
310.488
310.502
310.603
303.519
303.483
303.471
303.484
303.534
303.578
303.645
303.723
303.786
303.875
303.891
303.878
303.846
303.786
303.688
303.62
303.57
303.513
303.525
303.555
353.289
352.759
352.505
352.708
353.252
353.882
355.008
356.192
357.142
357.814
358.298
358.271
357.645
356.644
355.614
354.503
353.661
353.29
353.166
353.508
346.259
345.806
345.602
345.762
346.233
346.776
347.754
348.768
349.591
350.147
350.58
350.564
350.028
349.165
348.275
347.327
346.586
346.287
346.178
346.477
339.202
338.815
338.639
338.775
339.205
339.622
340.473
341.325
342.004
342.452
342.849
342.849
342.37
341.667
340.886
340.112
339.49
339.242
339.119
339.399
332.086
331.799
331.664
331.781
332.128
332.438
333.154
333.851
334.382
334.754
335.119
335.067
334.688
334.107
333.481
332.871
332.345
332.125
332.033
332.269
324.97
324.739
324.67
324.747
325.034
325.248
325.806
326.368
326.752
327.056
327.369
327.277
326.983
326.549
326.058
325.587
325.176
325.009
324.93
325.102
317.841
317.701
317.654
317.705
317.901
318.059
318.454
318.845
319.126
319.331
319.585
319.485
319.302
318.977
318.618
318.305
318.004
317.89
317.816
317.948
310.715
310.637
310.612
310.649
310.746
310.843
311.082
311.324
311.511
311.597
311.78
311.707
311.593
311.396
311.181
311.016
310.813
310.753
310.701
310.776
303.597
303.571
303.554
303.572
303.599
303.641
303.723
303.799
303.856
303.886
303.959
303.933
303.89
303.821
303.749
303.696
303.622
303.601
303.591
303.624
354.46
353.919
353.57
353.653
354.212
354.897
355.999
356.942
357.883
358.473
359.037
358.877
358.382
357.501
356.413
355.469
354.735
354.363
354.328
354.655
347.273
346.793
346.511
346.574
347.076
347.658
348.628
349.427
350.23
350.725
351.219
351.074
350.663
349.89
348.972
348.175
347.522
347.199
347.194
347.45
340.041
339.632
339.421
339.446
339.911
340.376
341.199
341.873
342.541
342.966
343.382
343.263
342.888
342.255
341.481
340.835
340.274
339.99
339.987
340.222
332.774
332.47
332.302
332.309
332.705
333.057
333.733
334.294
334.832
335.178
335.53
335.421
335.105
334.598
333.96
333.443
332.992
332.744
332.771
332.963
325.49
325.285
325.145
325.158
325.499
325.711
326.258
326.688
327.101
327.378
327.662
327.565
327.306
326.91
326.442
326.037
325.675
325.46
325.526
325.668
318.213
318.077
317.975
317.986
318.252
318.367
318.766
319.069
319.372
319.581
319.785
319.703
319.522
319.253
318.894
318.596
318.345
318.195
318.258
318.354
310.931
310.85
310.802
310.784
310.95
311.036
311.277
311.447
311.643
311.767
311.895
311.841
311.732
311.57
311.348
311.168
311.023
310.941
310.963
311.02
303.667
303.641
303.619
303.609
303.66
303.696
303.783
303.831
303.901
303.953
303.997
303.964
303.941
303.883
303.807
303.745
303.697
303.678
303.675
303.698
355.676
355.026
354.683
354.667
355.227
355.863
356.869
357.684
358.521
359.073
359.64
359.55
358.981
358.162
357.297
356.271
355.717
355.273
355.367
355.794
348.319
347.789
347.469
347.457
347.957
348.49
349.342
350.057
350.785
351.253
351.742
351.676
351.164
350.445
349.728
348.852
348.383
347.98
348.095
348.437
340.924
340.516
340.219
340.215
340.655
341.089
341.794
342.4
343.017
343.418
343.823
343.767
343.313
342.709
342.134
341.367
341.005
340.659
340.77
341.061
333.503
333.208
332.943
332.961
333.314
333.65
334.218
334.71
335.229
335.568
335.887
335.839
335.44
334.968
334.5
333.871
333.59
333.306
333.43
333.63
326.079
325.872
325.67
325.678
325.96
326.191
326.631
327.011
327.426
327.675
327.934
327.886
327.584
327.2
326.848
326.345
326.166
325.923
326.048
326.176
318.642
318.505
318.374
318.362
318.578
318.713
319.03
319.311
319.621
319.798
319.959
319.916
319.717
319.444
319.169
318.85
318.706
318.548
318.632
318.711
311.185
311.131
311.032
311.045
311.181
311.254
311.435
311.586
311.794
311.892
311.983
311.96
311.82
311.667
311.506
311.328
311.227
311.149
311.204
311.224
303.749
303.727
303.696
303.702
303.749
303.777
303.833
303.873
303.96
303.981
304.01
304.012
303.952
303.921
303.857
303.799
303.765
303.737
303.762
303.751
356.741
356.222
355.894
355.892
356.14
356.798
357.733
358.497
359.237
359.765
360.173
359.973
359.529
358.976
358.151
357.156
356.704
356.232
356.446
356.946
349.271
348.822
348.524
348.535
348.737
349.301
350.11
350.754
351.383
351.848
352.198
352.043
351.658
351.181
350.482
349.602
349.228
348.827
349.027
349.438
341.747
341.388
341.138
341.147
341.311
341.744
342.447
342.997
343.506
343.92
344.19
344.096
343.75
343.353
342.779
342.015
341.732
341.37
341.555
341.891
334.192
333.92
333.699
333.716
333.869
334.187
334.773
335.207
335.603
335.995
336.184
336.124
335.836
335.505
335.029
334.416
334.204
333.877
334.047
334.295
326.609
326.433
326.253
326.265
326.397
326.616
327.064
327.411
327.694
328.043
328.177
328.132
327.885
327.63
327.283
326.797
326.655
326.366
326.506
326.698
319.041
318.923
318.772
318.792
318.879
319.037
319.335
319.592
319.797
320.071
320.156
320.123
319.928
319.752
319.521
319.156
319.061
318.852
318.949
319.09
311.453
311.386
311.281
311.291
311.345
311.434
311.618
311.772
311.874
312.067
312.108
312.098
311.975
311.865
311.723
311.505
311.443
311.326
311.38
311.472
303.842
303.814
303.781
303.786
303.807
303.835
303.893
303.951
303.976
304.034
304.058
304.064
304.008
303.978
303.932
303.859
303.833
303.797
303.809
303.853
357.971
357.172
356.884
356.864
357.243
357.765
358.477
359.198
359.853
360.398
360.779
360.659
360.212
359.648
359.102
358.116
357.654
357.4
357.675
358.036
350.343
349.632
349.374
349.357
349.678
350.154
350.755
351.367
351.954
352.421
352.728
352.636
352.241
351.763
351.31
350.428
350.035
349.816
350.071
350.372
342.655
342.071
341.829
341.808
342.078
342.496
342.99
343.527
343.996
344.4
344.63
344.585
344.234
343.848
343.471
342.708
342.389
342.183
342.445
342.683
334.941
334.465
334.26
334.242
334.433
334.811
335.206
335.63
336.019
336.347
336.526
336.501
336.229
335.936
335.6
334.952
334.682
334.534
334.778
334.959
327.208
326.818
326.698
326.657
326.79
327.112
327.407
327.724
328.018
328.276
328.406
328.421
328.207
327.967
327.701
327.192
326.972
326.886
327.081
327.22
319.473
319.16
319.08
319.069
319.142
319.388
319.59
319.815
320.017
320.217
320.289
320.332
320.161
319.998
319.8
319.447
319.27
319.233
319.366
319.456
311.701
311.518
311.461
311.454
311.48
311.662
311.778
311.923
312.034
312.15
312.188
312.218
312.107
312.025
311.924
311.695
311.588
311.551
311.644
311.68
303.933
303.865
303.844
303.842
303.841
303.913
303.952
304.001
304.039
304.08
304.081
304.089
304.051
304.031
304.009
303.922
303.886
303.875
303.906
303.912
359.193
358.413
358.123
357.999
358.327
358.818
359.364
360.043
360.555
361.112
361.387
361.224
360.813
360.326
359.791
359.084
358.714
358.445
358.755
359.29
351.368
350.696
350.468
350.33
350.624
351.04
351.535
352.097
352.517
353.027
353.283
353.119
352.76
352.353
351.915
351.262
350.953
350.731
351.035
351.474
343.506
342.957
342.762
342.643
342.894
343.231
343.678
344.125
344.462
344.901
345.129
344.974
344.711
344.348
343.981
343.417
343.139
342.987
343.272
343.623
335.627
335.184
335.009
334.929
335.139
335.399
335.768
336.131
336.397
336.757
336.965
336.833
336.611
336.326
336.026
335.55
335.339
335.228
335.461
335.746
327.729
327.399
327.242
327.21
327.355
327.561
327.865
328.134
328.333
328.604
328.778
328.674
328.49
328.285
328.062
327.66
327.504
327.421
327.611
327.837
319.828
319.579
319.485
319.46
319.555
319.714
319.921
320.106
320.266
320.456
320.574
320.504
320.363
320.218
320.05
319.788
319.674
319.582
319.741
319.909
311.908
311.768
311.714
311.68
311.737
311.845
311.977
312.072
312.193
312.299
312.354
312.309
312.219
312.135
312.035
311.891
311.824
311.739
311.879
311.949
303.995
303.935
303.919
303.915
303.928
303.984
304.015
304.051
304.084
304.119
304.138
304.127
304.089
304.068
304.043
303.99
303.969
303.935
303.985
304.002
360.367
359.581
359.121
359.121
359.321
359.829
360.356
360.866
361.301
361.778
362.049
361.863
361.504
361.094
360.571
360.079
359.792
359.781
359.953
360.433
352.38
351.685
351.318
351.304
351.498
351.915
352.385
352.806
353.17
353.592
353.832
353.666
353.37
353.016
352.569
352.149
351.914
351.907
352.084
352.427
344.355
343.75
343.487
343.463
343.607
343.941
344.386
344.717
345.023
345.381
345.593
345.42
345.208
344.901
344.516
344.188
344
343.983
344.141
344.4
336.308
335.802
335.626
335.597
335.684
335.976
336.356
336.594
336.893
337.143
337.34
337.178
337.031
336.773
336.439
336.217
336.043
336.032
336.163
336.362
328.258
327.859
327.749
327.716
327.764
328.012
328.304
328.476
328.735
328.907
329.064
328.954
328.842
328.626
328.362
328.196
328.075
328.046
328.163
328.316
320.191
319.924
319.843
319.804
319.847
320.02
320.236
320.357
320.541
320.654
320.778
320.721
320.623
320.462
320.275
320.17
320.094
320.038
320.131
320.233
312.13
311.987
311.931
311.896
311.93
312.029
312.164
312.227
312.355
312.4
312.489
312.455
312.385
312.277
312.177
312.106
312.081
312.032
312.096
312.162
304.07
304.016
304.006
303.99
303.997
304.037
304.083
304.104
304.145
304.156
304.195
304.175
304.159
304.115
304.083
304.057
304.048
304.036
304.055
304.081
361.412
360.633
360.273
360.1
360.203
360.789
361.204
361.669
362.072
362.399
362.594
362.514
362.331
361.779
361.404
360.948
360.838
360.82
361.102
361.633
353.28
352.604
352.287
352.116
352.232
352.743
353.12
353.492
353.863
354.11
354.309
354.198
354.056
353.606
353.295
352.912
352.819
352.797
353.004
353.489
345.111
344.537
344.284
344.114
344.232
344.676
344.983
345.27
345.608
345.804
345.994
345.874
345.77
345.405
345.139
344.841
344.747
344.724
344.897
345.29
336.918
336.466
336.302
336.12
336.204
336.596
336.82
337.068
337.339
337.5
337.662
337.541
337.468
337.199
336.954
336.733
336.635
336.622
336.753
337.075
328.727
328.392
328.269
328.131
328.189
328.503
328.642
328.854
329.064
329.193
329.3
329.212
329.163
328.971
328.743
328.598
328.5
328.508
328.609
328.87
320.539
320.298
320.217
320.131
320.155
320.378
320.47
320.636
320.767
320.848
320.967
320.886
320.861
320.721
320.54
320.45
320.372
320.388
320.463
320.663
312.337
312.204
312.153
312.089
312.111
312.24
312.278
312.393
312.472
312.509
312.61
312.544
312.553
312.479
312.344
312.278
312.236
312.247
312.296
312.424
304.125
304.091
304.08
304.05
304.056
304.101
304.106
304.154
304.181
304.191
304.226
304.212
304.221
304.194
304.141
304.118
304.098
304.1
304.123
304.169
362.162
361.45
361.175
360.755
361.006
361.512
361.868
362.184
362.624
362.691
363.004
362.965
362.819
362.446
362.146
361.718
361.69
361.656
361.854
362.538
353.887
353.274
353.059
352.66
352.901
353.356
353.651
353.901
354.312
354.361
354.629
354.591
354.481
354.17
353.912
353.527
353.491
353.475
353.647
354.234
345.602
345.103
344.928
344.555
344.753
345.16
345.429
345.641
345.967
346.027
346.264
346.196
346.111
345.9
345.66
345.305
345.264
345.262
345.428
345.917
337.322
336.93
336.783
336.428
336.625
336.957
337.206
337.342
337.616
337.675
337.876
337.796
337.732
337.574
337.414
337.079
337.062
337.04
337.175
337.594
329.02
328.744
328.625
328.313
328.496
328.741
328.964
329.031
329.275
329.326
329.48
329.392
329.346
329.234
329.137
328.864
328.824
328.806
328.921
329.245
320.727
320.55
320.487
320.229
320.369
320.534
320.701
320.707
320.924
320.962
321.085
320.977
320.968
320.879
320.819
320.614
320.588
320.571
320.661
320.897
312.446
312.358
312.301
312.157
312.241
312.337
312.422
312.424
312.569
312.581
312.652
312.581
312.603
312.546
312.521
312.387
312.37
312.329
312.41
312.538
304.176
304.152
304.121
304.069
304.108
304.146
304.159
304.167
304.203
304.21
304.231
304.219
304.224
304.21
304.196
304.152
304.145
304.126
304.157
304.205
)
;

boundaryField
{
    hotSide
    {
        type            fixedGradient;
        gradient        nonuniform List<scalar> 
400
(
477.707
476.735
478.214
482.071
488.042
495.755
504.813
514.859
525.6
536.816
548.351
560.109
572.043
584.149
596.467
609.068
622.049
635.511
649.537
664.161
463.697
463.05
465.026
469.529
476.24
484.715
494.497
505.186
516.466
528.105
539.944
551.889
563.901
575.988
588.204
600.641
613.421
626.674
640.506
654.967
456.988
456.957
459.506
464.528
471.702
480.581
490.707
501.673
513.157
524.922
536.806
548.718
560.621
572.534
584.519
596.678
609.143
622.052
635.519
649.604
457.08
457.937
461.152
466.611
474.029
483.019
493.164
504.087
515.474
527.089
538.771
550.427
562.027
573.595
585.2
596.947
608.963
621.38
634.306
647.805
462.13
464.052
468.052
474.005
481.667
490.709
500.774
511.519
522.651
533.942
545.234
556.442
567.544
578.573
589.609
600.758
612.146
623.894
636.105
648.846
470.022
473.1
478.015
484.626
492.702
501.951
512.048
522.677
533.557
544.468
555.264
565.874
576.295
586.584
596.839
607.181
617.742
628.642
639.987
651.848
478.961
483.231
489.174
496.628
505.356
515.065
525.431
536.13
546.877
557.448
567.709
577.613
587.197
596.559
605.836
615.181
624.745
634.66
645.036
655.953
487.503
492.938
499.97
508.412
518.009
528.439
539.344
550.356
561.148
571.474
581.205
590.335
598.962
607.255
615.413
623.638
632.111
640.983
650.37
660.354
494.447
500.925
508.999
518.468
529.051
540.386
552.051
563.6
574.623
584.823
594.07
602.411
610.036
617.214
624.227
631.335
638.752
646.645
655.133
664.296
498.788
506.052
514.963
525.316
536.808
549.042
561.525
573.714
585.094
595.288
604.157
611.815
618.561
624.774
630.822
637.015
643.595
650.734
658.551
667.118
499.792
507.439
516.8
527.667
539.731
552.568
565.639
578.331
590.041
600.331
609.047
616.352
622.625
628.321
633.861
639.586
645.748
652.525
660.03
668.332
497.124
504.66
513.96
524.818
536.918
549.829
563.005
575.828
587.692
598.155
607.059
614.556
621.016
626.886
632.586
638.458
644.756
651.661
659.292
667.718
490.977
497.913
506.658
517.004
528.635
541.126
553.962
566.575
578.435
589.15
598.563
606.764
614.032
620.731
627.223
633.824
640.785
648.288
656.463
665.39
482.09
488.042
495.883
505.405
516.298
528.151
540.488
552.813
564.673
575.736
585.84
595.005
603.402
611.285
618.94
626.637
634.61
643.043
652.075
661.795
471.694
476.43
483.203
491.821
501.971
513.251
525.204
537.374
549.359
560.858
571.702
581.857
591.407
600.522
609.413
618.306
627.414
636.921
646.968
657.653
461.484
464.908
470.606
478.401
487.969
498.879
510.661
522.862
535.094
547.068
558.604
569.636
580.195
590.391
600.388
610.377
620.557
631.111
642.187
653.882
453.636
455.778
460.484
467.592
476.743
487.45
499.198
511.513
524.006
536.39
548.483
560.2
571.543
582.587
593.464
604.346
615.427
626.893
638.9
651.542
450.714
451.74
455.568
462.051
470.792
481.253
492.879
505.181
517.771
530.367
542.789
554.944
566.818
578.463
589.99
601.553
613.34
625.541
638.314
651.749
454.977
455.187
458.245
464.021
472.126
482.032
493.196
505.143
517.5
529.995
542.45
554.769
566.922
578.945
590.925
602.998
615.33
628.099
641.448
655.457
467.152
466.882
469.268
474.206
481.38
490.345
500.633
511.822
523.572
535.627
547.811
560.022
572.219
584.417
596.679
609.11
621.844
635.017
648.745
663.085
)
;
    }
    coldSide
    {
        type            mixed;
        refValue        uniform 300;
        refGradient     uniform 0;
        valueFraction   uniform 0.991591;
        source          uniform 0;
        value           nonuniform List<scalar> 
400
(
300.026
300.026
300.026
300.026
300.027
300.027
300.027
300.028
300.029
300.029
300.03
300.03
300.031
300.032
300.032
300.033
300.034
300.034
300.035
300.035
300.026
300.026
300.026
300.026
300.026
300.026
300.027
300.028
300.028
300.029
300.029
300.03
300.031
300.031
300.032
300.032
300.033
300.034