/*--------------------------------*- C++ -*----------------------------------*\
| =========                 |                                                 |
| \\      /  F ield         | OpenFOAM: The Open Source CFD Toolbox           |
|  \\    /   O peration     | Version:  2212                                  |
|   \\  /    A nd           | Website:  www.openfoam.com                      |
|    \\/     M anipulation  |                                                 |
\*---------------------------------------------------------------------------*/
FoamFile
{
    version     2.0;
    format      ascii;
    arch        "LSB;label=32;scalar=64";
    class       volScalarField;
    location    "./ITHACAoutput/true/18.4";
    object      error;
}
// * * * * * * * * * * * * * * * * * * * * * * * * * * * * * * * * * * * * * //

dimensions      [0 0 0 1 0 0 0];

internalField   nonuniform List<scalar> 
3200
(
1.75668
1.79894
2.0048
2.31654
2.55327
2.9158
3.20892
3.56478
3.88405
4.14461
4.34479
4.46462
4.60248
4.60386
4.64578
4.59166
4.65014
4.66676
4.6395
4.74844
1.45595
1.54462
1.72307
1.89986
2.11687
2.45355
2.76378
3.00933
3.27746
3.53763
3.66221
3.83783
3.84078
3.90254
3.95227
3.9284
3.89845
3.97463
4.04546
4.05326
1.27478
1.30539
1.4117
1.55163
1.76886
1.9739
2.30806
2.53189
2.74545
2.85164
3.06551
3.18058
3.21442
3.25732
3.28336
3.30422
3.31181
3.32209
3.3536
3.36778
0.944442
1.03132
1.05687
1.28344
1.46666
1.64305
1.90572
2.07435
2.29506
2.465
2.47824
2.56038
2.5749
2.66144
2.69826
2.65015
2.65297
2.81102
2.75753
2.74355
0.735715
0.830132
0.816387
0.989869
1.09563
1.22998
1.44389
1.61563
1.66083
1.80974
1.87036
2.04099
2.00183
2.01916
2.08361
2.0932
2.06007
2.13373
2.10782
2.14235
0.56122
0.553334
0.678652
0.672274
0.783405
0.935825
1.0155
1.13336
1.22309
1.33376
1.28574
1.38025
1.41295
1.43369
1.46928
1.50369
1.50246
1.5056
1.5103
1.42576
0.303463
0.322209
0.326167
0.403501
0.479621
0.538451
0.65962
0.618925
0.738594
0.828142
0.811324
0.849527
0.882997
0.861485
0.903678
0.856578
0.928396
0.897692
0.906718
0.960362
0.104542
0.118327
0.17961
0.112342
0.192992
0.129447
0.187859
0.147167
0.296701
0.265534
0.289395
0.293941
0.261991
0.302746
0.268102
0.353414
0.316907
0.324693
0.261415
0.280075
1.05002
1.17649
1.30865
1.58579
1.83131
2.11385
2.44766
2.75691
3.15523
3.36079
3.58006
3.69466
3.85838
3.85607
3.91567
3.89871
3.89911
3.93755
3.96712
4.1759
0.922292
1.00734
1.13582
1.33213
1.56878
1.85035
2.18611
2.4186
2.71009
2.87675
3.02662
3.21412
3.28214
3.35047
3.34913
3.30634
3.41831
3.38714
3.49382
3.51928
0.778858
0.805609
0.963987
1.12149
1.33857
1.53426
1.82848
2.11651
2.33618
2.41244
2.57787
2.66454
2.73872
2.80432
2.84874
2.78422
2.82467
2.89593
2.93658
2.99272
0.660224
0.718718
0.739867
0.890804
1.01357
1.24713
1.39244
1.61524
1.87308
1.93676
2.1041
2.13132
2.26372
2.24158
2.30473
2.243
2.35786
2.35004
2.42345
2.46898
0.441036
0.512921
0.588721
0.719648
0.837073
0.963272
1.11602
1.26554
1.44947
1.54221
1.59857
1.71751
1.76327
1.69607
1.79236
1.75908
1.78016
1.73908
1.88602
1.93088
0.347897
0.432143
0.480719
0.433479
0.623449
0.672037
0.811682
0.921075
1.01261
1.10416
1.18663
1.20839
1.21628
1.16275
1.20751
1.26027
1.29644
1.27485
1.3288
1.26852
0.176281
0.214496
0.210146
0.309964
0.354711
0.42449
0.444488
0.56064
0.593889
0.643791
0.646979
0.688704
0.690181
0.757523
0.759038
0.7155
0.811172
0.808323
0.79332
0.834025
0.101217
0.0351935
0.0834858
0.0916981
0.133789
0.165113
0.169093
0.185122
0.239607
0.133378
0.270616
0.235317
0.241476
0.266316
0.263577
0.241638
0.293372
0.254572
0.224514
0.280446
0.256146
0.322257
0.435089
0.675602
0.92063
1.22328
1.49641
1.8687
2.12973
2.32062
2.56723
2.76382
2.77527
2.89477
2.88874
2.9681
2.99832
3.15143
3.14407
3.33088
0.240066
0.278492
0.378792
0.527286
0.799502
1.03233
1.3067
1.55827
1.82239
2.01538
2.23358
2.31595
2.44861
2.47848
2.53802
2.50463
2.62962
2.66465
2.78649
2.87328
0.230364
0.248917
0.318329
0.420546
0.69403
0.902531
1.09129
1.40375
1.51231
1.70922
1.86365
1.94859
2.09955
2.08451
2.10125
2.06282
2.2021
2.2939
2.2976
2.39571
0.188275
0.204982
0.308628
0.383739
0.529597
0.661448
0.891778
1.07078
1.27982
1.37328
1.49243
1.56496
1.69419
1.7108
1.74089
1.75573
1.82708
1.86211
1.872
2.03694
0.135356
0.21741
0.180643
0.266465
0.408535
0.51818
0.655138
0.744442
0.894211
1.07168
1.16115
1.2001
1.2812
1.30161
1.34987
1.39332
1.3704
1.43794
1.45822
1.55158
0.14382
0.0479594
0.118828
0.227287
0.314127
0.359062
0.48776
0.634969
0.638878
0.745906
0.759463
0.977619
0.988602
0.966424
0.925464
0.951121
1.04055
1.05997
1.06647
1.00911
0.0903391
0.0543917
0.080165
0.143239
0.197712
0.21454
0.288293
0.329987
0.481463
0.428024
0.483998
0.470649
0.545249
0.583921
0.623394
0.610002
0.575849
0.704127
0.669756
0.699556
0.0828143
-0.00718516
0.0339293
-0.00559256
0.0694826
0.0963383
0.111853
0.101018
0.126652
0.16583
0.123903
0.225672
0.173153
0.266826
0.224269
0.201024
0.170535
0.153056
0.116216
0.263656
-0.596524
-0.54928
-0.526696
-0.289151
-0.11058
0.250666
0.481302
0.782091
1.09007
1.29422
1.46171
1.62735
1.70059
1.87168
1.90696
2.02933
2.05004
2.09484
2.2912
2.35353
-0.526983
-0.451437
-0.42509
-0.24912
-0.0326554
0.18193
0.455093
0.605264
0.880007
1.13656
1.31505
1.48023
1.61438
1.59936
1.63906
1.68125
1.82737
1.89442
1.96681
2.10423
-0.410794
-0.433052
-0.370309
-0.226342
-0.0861951
0.202742
0.348363
0.644396
0.748807
0.914353
1.1131
1.17321
1.23929
1.40678
1.42113
1.41723
1.49738
1.6016
1.76271
1.75637
-0.372785
-0.336824
-0.309687
-0.191793
-0.0225616
0.144426
0.291291
0.504865
0.550216
0.727966
0.834979
0.929972
1.10541
1.06248
1.18305
1.15352
1.21578
1.34932
1.33848
1.44406
-0.211413
-0.273047
-0.154404
-0.180464
0.00168008
0.0832484
0.200429
0.336922
0.467731
0.608246
0.646043
0.668195
0.811133
0.855332
0.882249
0.862757
0.904347
1.06855
1.06344
1.15209
-0.215335
-0.198194
-0.109376
-0.113665
-0.0643831
0.0888322
0.175699
0.138022
0.307906
0.383274
0.443001
0.571745
0.557935
0.642139
0.620814
0.629815
0.660393
0.689442
0.702481
0.893829
-0.113915
-0.085341
-0.116395
-0.0366045
-0.0412981
0.0623134
0.14153
0.174753
0.219362
0.214452
0.294123
0.358689
0.335781
0.306435
0.409975
0.396605
0.380071
0.400609
0.424595
0.429542
-0.0443575
0.0285888
-0.00265238
0.048959
0.030593
0.0663407
-0.0108354
0.079538
0.0219077
0.0664101
0.0797715
0.0832018
0.111752
0.107423
0.0911132
0.120872
0.0923436
0.158195
0.137691
0.152526
-1.41836
-1.4295
-1.34108
-1.19175
-1.02325
-0.736182
-0.563429
-0.304306
0.109852
0.229295
0.391183
0.540641
0.661895
0.794735
0.911131
0.940035
1.05425
1.26057
1.37912
1.65147
-1.29146
-1.1463
-1.13972
-1.03956
-0.977808
-0.676335
-0.36259
-0.13798
0.0122737
0.219864
0.409255
0.535776
0.64112
0.741617
0.777136
0.956179
0.989746
1.01812
1.15511
1.32797
-0.987534
-1.03448
-0.987239
-0.846734
-0.750358
-0.557757
-0.361056
-0.249304
0.018587
0.16389
0.250349
0.421217
0.600788
0.614831
0.655033
0.746041
0.787795
0.903613
1.07288
1.13913
-0.811794
-0.793984
-0.802934
-0.755358
-0.567915
-0.553354
-0.352126
-0.156369
0.0452858
0.123387
0.217856
0.373106
0.423869
0.437929
0.505332
0.625849
0.702713
0.762031
0.847441
0.975904
-0.605635
-0.657955
-0.615334
-0.553886
-0.511125
-0.328852
-0.201701
-0.0890763
0.0117254
0.0425241
0.20646
0.21647
0.371635
0.416007
0.40773
0.523921
0.511859
0.542512
0.688567
0.783111
-0.475631
-0.444786
-0.430829
-0.390697
-0.409799
-0.330962
-0.163352
-0.0954298
0.013022
0.0678674
0.188266
0.167755
0.231431
0.212258
0.367286
0.319468
0.316295
0.434897
0.508434
0.513888
-0.228656
-0.274821
-0.204744
-0.279261
-0.244549
-0.178305
-0.121118
-0.0521231
0.0790864
0.0808999
0.0281141
0.129552
0.203835
0.133278
0.128958
0.208011
0.263826
0.245592
0.304361
0.331764
-0.0557046
-0.0790181
-0.107368
-0.0666822
-0.097819
-0.0552401
-0.0468869
-0.0178574
-0.0564739
0.0691789
0.00933466
0.10645
0.0359522
0.0920991
0.0360642
0.060451
0.012755
0.05552
0.119065
0.155879
-2.18808
-2.21876
-2.16133
-2.06137
-1.92498
-1.75033
-1.42613
-1.2504
-1.00764
-0.735323
-0.597153
-0.415948
-0.297465
-0.224681
-0.0765245
0.0800193
0.210501
0.421971
0.517286
0.843762
-1.88475
-1.90985
-1.84774
-1.85908
-1.71432
-1.49749
-1.32782
-1.07333
-0.857253
-0.695779
-0.452994
-0.370297
-0.260588
-0.104957
-0.0778337
0.0866617
0.161657
0.308219
0.540559
0.699938
-1.56208
-1.61508
-1.63464
-1.52408
-1.39506
-1.26153
-1.09359
-0.938795
-0.721261
-0.590407
-0.403009
-0.249299
-0.178364
-0.127331
0.0207374
0.0428924
0.123049
0.308304
0.503881
0.610472
-1.22252
-1.32125
-1.2702
-1.29185
-1.15577
-1.08463
-0.86409
-0.708838
-0.574002
-0.386739
-0.387383
-0.287761
-0.223523
-0.100984
-0.048998
0.0387607
0.0941634
0.264574
0.306339
0.457819
-0.990758
-1.00917
-0.97589
-0.91706
-0.93022
-0.806793
-0.732703
-0.646543
-0.475113
-0.330634
-0.298623
-0.140282
-0.110527
-0.0555746
0.00801428
0.0161817
0.131179
0.209282
0.279705
0.337451
-0.7177
-0.692307
-0.670323
-0.67839
-0.665692
-0.563984
-0.479644
-0.426718
-0.330069
-0.248426
-0.224441
-0.25121
-0.109652
-0.0836121
-0.014138
0.0438273
0.0955864
0.141534
0.204176
0.269696
-0.416628
-0.457168
-0.447859
-0.426497
-0.446751
-0.330225
-0.340052
-0.194572
-0.194695
-0.109416
-0.105073
-0.128877
-0.055701
-0.0573067
0.0199209
-0.0136319
0.0461844
0.0502599
0.159967
0.194672
-0.180038
-0.200475
-0.156919
-0.154044
-0.137928
-0.183273
-0.137141
-0.0880291
-0.0570863
-0.0490212
0.00995983
-0.0181713
-0.0546442
0.00987002
0.0221619
0.0228089
0.0640916
-0.00907989
0.052839
0.0484128
-2.79519
-2.94344
-3.00277
-2.88599
-2.73612
-2.63136
-2.37576
-2.15653
-1.90717
-1.76168
-1.57024
-1.3659
-1.26965
-1.10794
-0.960012
-0.818007
-0.611512
-0.358427
-0.233229
0.136789
-2.44307
-2.51354
-2.52236
-2.51491
-2.41922
-2.27699
-2.09826
-1.89358
-1.72664
-1.48749
-1.29971
-1.19989
-1.05582
-0.932461
-0.815069
-0.623303
-0.513857
-0.30988
-0.130023
0.0480538
-2.09286
-2.11648
-2.13451
-2.11878
-1.97593
-1.9201
-1.74644
-1.64704
-1.43439
-1.25511
-1.12124
-1.01689
-0.871053
-0.810421
-0.644365
-0.584569
-0.381031
-0.244897
-0.0994129
0.0795416
-1.66442
-1.66343
-1.82865
-1.73286
-1.63108
-1.53021
-1.44175
-1.29557
-1.1698
-1.08339
-0.906809
-0.843861
-0.736471
-0.700554
-0.530916
-0.501358
-0.341095
-0.223371
-0.0413361
0.108839
-1.39884
-1.33096
-1.36613
-1.32348
-1.31942
-1.20201
-1.1473
-0.987958
-0.905363
-0.803206
-0.68506
-0.696705
-0.584302
-0.546205
-0.43079
-0.342862
-0.303551
-0.174971
-0.0929826
0.0648256
-0.936519
-0.968841
-0.958263
-1.02525
-0.964407
-0.84599
-0.769545
-0.752115
-0.692458
-0.544567
-0.561041
-0.454273
-0.392886
-0.38331
-0.300911
-0.206701
-0.177348
-0.106012
-0.0664994
0.124001
-0.60975
-0.539319
-0.590472
-0.450991
-0.540494
-0.613069
-0.472645
-0.539496
-0.513745
-0.314732
-0.273256
-0.297833
-0.249711
-0.199791
-0.20116
-0.192247
-0.0723328
-0.0895645
-0.0144734
0.0388333
-0.140701
-0.196318
-0.283011
-0.208471
-0.197703
-0.192689
-0.210688
-0.11365
-0.148305
-0.131923
-0.144759
-0.0737652
-0.0470693
-0.0697242
-0.0636731
-0.09487
-0.0426952
-0.0150529
-0.0267588
0.0468782
-3.45212
-3.51947
-3.59067
-3.62525
-3.52288
-3.40319
-3.28912
-3.07875
-2.85051
-2.64559
-2.46293
-2.24188
-2.0777
-1.96716
-1.72893
-1.56715
-1.37252
-1.08457
-0.818763
-0.566276
-3.00942
-3.09303
-3.13934
-3.07675
-3.05681
-2.92746
-2.79567
-2.62665
-2.43577
-2.31833
-2.12688
-1.93553
-1.80297
-1.67788
-1.469
-1.29771
-1.15555
-0.965793
-0.664104
-0.431579
-2.48673
-2.64443
-2.6608
-2.58693
-2.58785
-2.48081
-2.29503
-2.18083
-2.03796
-1.90884
-1.76455
-1.67811
-1.48417
-1.40785
-1.29315
-1.16161
-0.896765
-0.747973
-0.63768
-0.406506
-2.06737
-2.15581
-2.14645
-2.13941
-2.1074
-1.97453
-1.97047
-1.7912
-1.68938
-1.59945
-1.46727
-1.4131
-1.31652
-1.14645
-1.01866
-0.920777
-0.821412
-0.61671
-0.502323
-0.319477
-1.55272
-1.70028
-1.6
-1.63981
-1.63056
-1.61941
-1.51427
-1.43787
-1.26939
-1.2863
-1.12351
-1.08982
-0.903107
-0.883229
-0.730235
-0.666957
-0.593209
-0.549424
-0.346743
-0.270466
-1.17919
-1.17034
-1.17341
-1.22941
-1.13928
-1.12403
-1.03888
-1.02774
-0.930896
-0.896046
-0.771598
-0.720915
-0.715278
-0.59902
-0.562182
-0.495123
-0.353587
-0.331579
-0.254276
-0.21504
-0.640501
-0.651883
-0.685494
-0.711202
-0.682608
-0.720041
-0.612543
-0.645846
-0.517962
-0.587058
-0.499488
-0.474785
-0.478381
-0.389413
-0.322603
-0.315079
-0.267469
-0.220047
-0.167766
-0.128866
-0.236783
-0.293154
-0.149516
-0.209092
-0.260551
-0.238031
-0.187941
-0.15036
-0.207511
-0.157414
-0.181078
-0.145193
-0.161917
-0.135116
-0.0873136
-0.0675233
-0.0635158
-0.0345957
-0.111898
-0.0523992
-3.97335
-4.03914
-4.20803
-4.18322
-4.19732
-4.15335
-3.91664
-3.80208
-3.58814
-3.40846
-3.25591
-2.96539
-2.82955
-2.66852
-2.40766
-2.23975
-1.97688
-1.75901
-1.37625
-1.09566
-3.44944
-3.51628
-3.67434
-3.67046
-3.6303
-3.49166
-3.43171
-3.32696
-3.16986
-2.9543
-2.78591
-2.63985
-2.45709
-2.3254
-2.1166
-1.96288
-1.73068
-1.33897
-1.19162
-0.928906
-2.87512
-2.98319
-3.00455
-3.06238
-3.01641
-2.96428
-2.92783
-2.75121
-2.68158
-2.43332
-2.39224
-2.18633
-2.12411
-2.02141
-1.86506
-1.58671
-1.41924
-1.2288
-0.998547
-0.744254
-2.30903
-2.41081
-2.45418
-2.49592
-2.42586
-2.48076
-2.26201
-2.25641
-2.08916
-2.07242
-1.94339
-1.78256
-1.71404
-1.58408
-1.51393
-1.38143
-1.18096
-0.985366
-0.760878
-0.650691
-1.79569
-1.84597
-1.92567
-1.96544
-1.92227
-1.92742
-1.83758
-1.70577
-1.64072
-1.60883
-1.49767
-1.36801
-1.32382
-1.27057
-1.11216
-1.06564
-0.881715
-0.756053
-0.657442
-0.515531
-1.30215
-1.33783
-1.40351
-1.37199
-1.36749
-1.34305
-1.26031
-1.20932
-1.17137
-1.18484
-1.05105
-0.995348
-0.952791
-0.868539
-0.795464
-0.716014
-0.625902
-0.555075
-0.53491
-0.359019
-0.707122
-0.753432
-0.788205
-0.830462
-0.839619
-0.772457
-0.772474
-0.729546
-0.805829
-0.711165
-0.64531
-0.621625
-0.566384
-0.489335
-0.434975
-0.405366
-0.346802
-0.341687
-0.273487
-0.201751
-0.287105
-0.309443
-0.315472
-0.223012
-0.310001
-0.301107
-0.236987
-0.200714
-0.235531
-0.207597
-0.163415
-0.189506
-0.176276
-0.137049
-0.228608
-0.152605
-0.154109
-0.144959
-0.15077
-0.0582547
-4.27787
-4.50327
-4.59062
-4.79431
-4.7531
-4.63427
-4.59273
-4.43006
-4.23526
-4.0906
-3.95136
-3.67073
-3.52496
-3.34805
-3.16408
-2.88352
-2.48061
-2.22547
-1.87223
-1.49298
-3.74409
-3.88825
-4.01657
-4.11179
-4.06496
-4.05821
-3.99142
-3.81734
-3.72953
-3.53315
-3.38137
-3.21382
-3.02373
-2.85947
-2.58978
-2.4353
-2.14926
-1.95542
-1.59694
-1.32925
-3.191
-3.24112
-3.38897
-3.43258
-3.49237
-3.46515
-3.38375
-3.25899
-3.08314
-2.94365
-2.89326
-2.72304
-2.599
-2.42268
-2.24459
-2.00284
-1.86824
-1.5081
-1.34051
-1.12978
-2.58844
-2.73625
-2.69746
-2.84026
-2.81393
-2.77922
-2.69404
-2.71003
-2.60887
-2.41307
-2.413
-2.21005
-2.05484
-1.89273
-1.87871
-1.67521
-1.47026
-1.31789
-1.10038
-0.926453
-1.93423
-2.027
-2.07676
-2.15967
-2.14478
-2.16566
-2.10167
-2.06102
-2.00216
-1.90942
-1.83047
-1.6791
-1.65407
-1.57933
-1.45525
-1.27337
-1.15437
-0.952697
-0.87458
-0.653103
-1.36103
-1.49265
-1.57964
-1.57687
-1.58007
-1.54899
-1.54974
-1.42306
-1.39571
-1.36089
-1.32562
-1.20683
-1.12032
-1.07087
-0.976506
-0.877362
-0.806861
-0.787492
-0.655351
-0.549245
-0.897727
-0.862214
-0.958985
-0.997882
-0.918988
-0.866621
-0.942648
-0.88817
-0.83837
-0.870293
-0.792527
-0.758947
-0.729087
-0.662361
-0.661442
-0.565889
-0.505226
-0.394057
-0.411518
-0.294575
-0.281627
-0.342376
-0.264056
-0.299077
-0.229108
-0.357495
-0.319755
-0.257657
-0.241806
-0.229023
-0.212899
-0.262507
-0.19578
-0.27648
-0.15039
-0.206252
-0.172624
-0.208663
-0.16075
-0.172427
-4.658
-4.87681
-5.03303
-5.05487
-5.16925
-5.16705
-5.06574
-4.96756
-4.81394
-4.57103
-4.49771
-4.21149
-4.09946
-3.83948
-3.5795
-3.37241
-2.97362
-2.61956
-2.23946
-1.86996
-3.93918
-4.18324
-4.33297
-4.47318
-4.42293
-4.5016
-4.3238
-4.23649
-4.12963
-3.99624
-3.85351
-3.71719
-3.53746
-3.23322
-3.06555
-2.91701
-2.50196
-2.30287
-1.89886
-1.55357
-3.43759
-3.49767
-3.64609
-3.76562
-3.72462
-3.80212
-3.72328
-3.64137
-3.50448
-3.34133
-3.24593
-3.16932
-3.01921
-2.81542
-2.62427
-2.38752
-2.16504
-1.88067
-1.59882
-1.25339
-2.66874
-2.88315
-2.95559
-2.99925
-3.06962
-3.10621
-2.99709
-2.93208
-2.88045
-2.8298
-2.6168
-2.51288
-2.40889
-2.25936
-2.1364
-1.97968
-1.7908
-1.58435
-1.2963
-1.1093
-2.1289
-2.18684
-2.33018
-2.3708
-2.41232
-2.39036
-2.36965
-2.3015
-2.21138
-2.15807
-2.02089
-2.00209
-1.84203
-1.75539
-1.62191
-1.56142
-1.40662
-1.2293
-1.09523
-0.866167
-1.50545
-1.53944
-1.6359
-1.69249
-1.70135
-1.67152
-1.69773
-1.65681
-1.65495
-1.55592
-1.51606
-1.43494
-1.35633
-1.32364
-1.16853
-1.10238
-1.0051
-0.848713
-0.767717
-0.551143
-0.939322
-1.02107
-1.01114
-0.962596
-1.07642
-1.0431
-1.0053
-0.946958
-0.963678
-0.939281
-0.84218
-0.819705
-0.839338
-0.744768
-0.683968
-0.653764
-0.559515
-0.488762
-0.421168
-0.377105
-0.263189
-0.334026
-0.378823
-0.295617
-0.360452
-0.367006
-0.348647
-0.270314
-0.303038
-0.269414
-0.326557
-0.281701
-0.309337
-0.284986
-0.248035
-0.25962
-0.130987
-0.154149
-0.149495
-0.112553
-4.72978
-5.04817
-5.26305
-5.45019
-5.51436
-5.52383
-5.5232
-5.39029
-5.26775
-5.13677
-4.91457
-4.62534
-4.48029
-4.31976
-4.01641
-3.61609
-3.34939
-2.9041
-2.47669
-2.12871
-4.11366
-4.30309
-4.57693
-4.6746
-4.7674
-4.73824
-4.67143
-4.59471
-4.56833
-4.41588
-4.22891
-4.12272
-3.83526
-3.67166
-3.40492
-3.14965
-2.87494
-2.46345
-2.11222
-1.76674
-3.48507
-3.60455
-3.91098
-3.93882
-4.01505
-4.00037
-3.93673
-3.89025
-3.85955
-3.73066
-3.53174
-3.45904
-3.29903
-3.04719
-2.80019
-2.67829
-2.36113
-2.14092
-1.782
-1.46623
-2.77855
-2.89478
-3.15016
-3.19623
-3.27734
-3.27693
-3.22484
-3.2072
-3.14882
-3.09022
-2.87366
-2.86967
-2.70706
-2.52272
-2.32939
-2.19599
-1.97211
-1.72422
-1.53414
-1.21137
-2.27872
-2.31875
-2.43315
-2.45768
-2.53131
-2.58069
-2.53326
-2.50962
-2.42852
-2.3952
-2.30377
-2.17018
-2.14472
-1.96763
-1.88038
-1.68134
-1.54892
-1.30526
-1.09853
-0.958225
-1.58361
-1.67779
-1.71904
-1.80101
-1.81937
-1.83784
-1.71855
-1.7141
-1.72078
-1.71968
-1.63131
-1.55186
-1.45395
-1.39906
-1.3291
-1.18684
-1.05362
-0.903327
-0.758182
-0.660729
-0.913701
-0.997936
-1.02284
-1.04952
-1.14147
-1.12731
-1.11507
-1.07156
-1.00579
-1.00895
-0.977568
-0.967386
-0.893411
-0.796609
-0.781395
-0.640732
-0.645122
-0.617114
-0.431112
-0.433899
-0.281156
-0.35046
-0.332037
-0.296528
-0.364401
-0.383662
-0.366244
-0.408076
-0.418453
-0.35399
-0.395492
-0.325553
-0.315114
-0.336465
-0.31135
-0.252083
-0.189195
-0.137399
-0.14567
-0.208423
-4.92642
-5.13519
-5.47728
-5.64339
-5.70954
-5.76286
-5.78025
-5.69003
-5.65806
-5.47603
-5.31606
-5.08962
-4.8263
-4.62588
-4.24562
-3.93184
-3.523
-3.10835
-2.70203
-2.2071
-4.18184
-4.43263
-4.65707
-4.87916
-4.94576
-5.00065
-4.93441
-4.90239
-4.87969
-4.71504
-4.55046
-4.36902
-4.14137
-3.9196
-3.684
-3.36298
-3.01937
-2.68249
-2.28693
-1.93203
-3.50881
-3.71936
-3.95799
-4.09327
-4.15722
-4.13078
-4.20722
-4.15143
-4.02073
-3.99847
-3.82141
-3.70191
-3.59713
-3.27917
-3.0784
-2.81732
-2.503
-2.23945
-1.89384
-1.64334
-2.83183
-3.032
-3.21678
-3.36906
-3.40645
-3.39678
-3.44347
-3.37816
-3.32452
-3.23648
-3.14746
-2.95285
-2.86112
-2.71488
-2.47246
-2.34616
-2.01693
-1.83647
-1.56876
-1.35025
-2.24193
-2.3965
-2.4644
-2.55579
-2.61463
-2.65592
-2.6196
-2.65248
-2.58065
-2.51487
-2.44102
-2.35063
-2.23729
-2.1715
-1.97716
-1.74623
-1.56446
-1.41568
-1.19847
-1.08022
-1.59597
-1.6784
-1.72197
-1.81769
-1.91421
-1.90769
-1.82427
-1.9421
-1.85074
-1.81192
-1.73032
-1.67774
-1.56264
-1.51632
-1.36678
-1.24674
-1.10796
-0.937478
-0.86613
-0.724111
-0.959061
-0.981326
-1.05911
-1.08879
-1.13333
-1.16121
-1.1841
-1.11055
-1.0189
-1.01359
-1.02988
-0.99496
-0.94978
-0.942052
-0.861185
-0.738806
-0.651718
-0.595223
-0.58874
-0.387276
-0.33061
-0.295051
-0.360812
-0.300199
-0.407876
-0.441128
-0.335369
-0.39766
-0.370862
-0.328866
-0.331752
-0.257472
-0.372841
-0.255259
-0.247165
-0.30076
-0.206849
-0.242773
-0.169131
-0.0942369
-4.83587
-5.13613
-5.40045
-5.62367
-5.87023
-5.91894
-5.8977
-5.85061
-5.78477
-5.65293
-5.49481
-5.24655
-4.96761
-4.74374
-4.40698
-4.08411
-3.66887
-3.14227
-2.64896
-2.2248
-4.1533
-4.41522
-4.6416
-4.83933
-5.01653
-5.02083
-5.08592
-5.02765
-4.9923
-4.7926
-4.74582
-4.46668
-4.34108
-4.04525
-3.80002
-3.42998
-3.0961
-2.69135
-2.20203
-1.92228
-3.47084
-3.72382
-3.94973
-4.0713
-4.26871
-4.25926
-4.31727
-4.26002
-4.09214
-4.11487
-4.03049
-3.81416
-3.63086
-3.43317
-3.23596
-2.9207
-2.53261
-2.21157
-1.87018
-1.60669
-2.86587
-2.99271
-3.20995
-3.30906
-3.41953
-3.45268
-3.53403
-3.50833
-3.41665
-3.33306
-3.26642
-3.02369
-2.89899
-2.73743
-2.58205
-2.32523
-2.1244
-1.84128
-1.57585
-1.34769
-2.2295
-2.31508
-2.45616
-2.66954
-2.69795
-2.73241
-2.70628
-2.63293
-2.64143
-2.51712
-2.52494
-2.46083
-2.30434
-2.18409
-1.90167
-1.82451
-1.64277
-1.40017
-1.09424
-0.963329
-1.55411
-1.55894
-1.73651
-1.77949
-1.9272
-1.93569
-1.91957
-1.93505
-1.83707
-1.8076
-1.82395
-1.6917
-1.61293
-1.58711
-1.46042
-1.27676
-1.09788
-1.02081
-0.861712
-0.719757
-0.945811
-1.05621
-1.10526
-1.07404
-1.11217
-1.16577
-1.19955
-1.16834
-1.16184
-1.12282
-1.07087
-1.01359
-1.09294
-0.951363
-0.841512
-0.767806
-0.661819
-0.55768
-0.549767
-0.346368
-0.370815
-0.309571
-0.366135
-0.329016
-0.365051
-0.351095
-0.437644
-0.407004
-0.385094
-0.334735
-0.360954
-0.352425
-0.337846
-0.335883
-0.271265
-0.234209
-0.311533
-0.197521
-0.198497
-0.0994081
-4.61023
-4.90197
-5.29041
-5.54473
-5.75878
-5.87592
-5.82217
-5.85498
-5.82796
-5.6189
-5.47098
-5.25916
-5.06893
-4.70102
-4.462
-4.01407
-3.64998
-3.10003
-2.56945
-2.07417
-3.95713
-4.25746
-4.51957
-4.75037
-4.89076
-4.96142
-5.08704
-5.13279
-5.00883
-4.89979
-4.74455
-4.57016
-4.37652
-4.11596
-3.79157
-3.48246
-3.06762
-2.59617
-2.15965
-1.79307
-3.35551
-3.56666
-3.79349
-4.00148
-4.09368
-4.16141
-4.23695
-4.26642
-4.27309
-4.08675
-4.0605
-3.83076
-3.68832
-3.45629
-3.1443
-2.86357
-2.5959
-2.1487
-1.8079
-1.50806
-2.77119
-2.90872
-3.0896
-3.24665
-3.36221
-3.44425
-3.42824
-3.3976
-3.43321
-3.37909
-3.27614
-3.12351
-2.94428
-2.76422
-2.54503
-2.35088
-2.0403
-1.75017
-1.45929
-1.192
-2.10663
-2.22355
-2.37949
-2.5065
-2.57958
-2.70031
-2.77275
-2.67998
-2.67375
-2.58561
-2.51426
-2.43589
-2.34006
-2.18094
-1.97836
-1.84477
-1.61292
-1.31701
-1.14065
-0.877393
-1.50639
-1.51774
-1.73253
-1.7769
-1.83583
-1.87019
-1.91784
-1.92294
-1.90668
-1.86631
-1.82195
-1.7263
-1.63309
-1.58215
-1.36796
-1.3416
-1.10875
-0.907037
-0.72454
-0.672865
-0.908771
-0.979413
-1.011
-1.0532
-1.14462
-1.13107
-1.13268
-1.10278
-1.18173
-1.09961
-1.09108
-1.09115
-0.986416
-0.875223
-0.90744
-0.804532
-0.671668
-0.559168
-0.475889
-0.395872
-0.287734
-0.314929
-0.385743
-0.378894
-0.405583
-0.348439
-0.3962
-0.394241
-0.397134
-0.327453
-0.331997
-0.315684
-0.262031
-0.284092
-0.368447
-0.208432
-0.183953
-0.218981
-0.110488
-0.0806227
-4.28685
-4.61347
-5.00173
-5.32185
-5.4707
-5.70492
-5.7983
-5.77957
-5.72321
-5.62592
-5.52669
-5.21861
-5.04377
-4.66104
-4.3208
-3.89283
-3.41665
-2.88191
-2.33505
-1.82861
-3.66657
-3.92619
-4.32991
-4.51465
-4.71862
-4.8527
-4.92699
-4.93661
-4.89665
-4.7845
-4.71589
-4.47586
-4.27148
-4.01021
-3.64926
-3.30534
-2.91596
-2.44166
-1.9289
-1.54002
-3.05963
-3.34452
-3.60011
-3.83968
-4.01675
-4.08528
-4.20949
-4.12525
-4.13686
-4.05848
-3.97468
-3.76815
-3.61589
-3.30381
-3.09589
-2.7647
-2.4396
-2.06922
-1.67007
-1.3431
-2.49984
-2.6888
-2.90442
-3.10895
-3.26431
-3.382
-3.34707
-3.40656
-3.35952
-3.27752
-3.13237
-3.04831
-2.94526
-2.73334
-2.50339
-2.32152
-1.9487
-1.71522
-1.3489
-1.02383
-1.92338
-2.07359
-2.24596
-2.43738
-2.52225
-2.56493
-2.6447
-2.6599
-2.57545
-2.59852
-2.48104
-2.38322
-2.25148
-2.14412
-1.96341
-1.72526
-1.52135
-1.33173
-0.991921
-0.843491
-1.41102
-1.44499
-1.58949
-1.66818
-1.81073
-1.86211
-1.89216
-1.92541
-1.86461
-1.92422
-1.76076
-1.67717
-1.56332
-1.48606
-1.4257
-1.2521
-1.09888
-0.891843
-0.691123
-0.513801
-0.864918
-0.878346
-0.914948
-1.02273
-1.08263
-1.17721
-1.10106
-1.13676
-1.07107
-1.10703
-1.07826
-1.06879
-1.01908
-0.913264
-0.847555
-0.723834
-0.643893
-0.549042
-0.390458
-0.319866
-0.328972
-0.281185
-0.271886
-0.321875
-0.368021
-0.365377
-0.432077
-0.348953
-0.421232
-0.363113
-0.374985
-0.357996
-0.258474
-0.31288
-0.292724
-0.275171
-0.24074
-0.203983
-0.144591
-0.134334
-3.84855
-4.107
-4.59786
-4.97996
-5.17328
-5.4321
-5.55854
-5.49777
-5.46638
-5.41084
-5.31922
-4.98373
-4.74868
-4.37234
-4.00359
-3.66675
-3.0925
-2.60048
-1.96941
-1.38289
-3.34108
-3.57977
-4.02086
-4.21575
-4.45438
-4.6665
-4.67804
-4.69295
-4.70043
-4.68554
-4.59189
-4.23884
-4.07039
-3.75605
-3.47069
-3.00876
-2.67256
-2.17977
-1.61748
-1.26443
-2.75301
-3.03509
-3.26996
-3.55346
-3.751
-3.8642
-3.90688
-3.95722
-3.9123
-3.92279
-3.74309
-3.51146
-3.34069
-3.15004
-2.89689
-2.56103
-2.18859
-1.79725
-1.34657
-0.936013
-2.24957
-2.42922
-2.684
-2.9045
-3.02816
-3.16265
-3.28007
-3.24309
-3.15631
-3.10759
-2.98015
-2.91308
-2.79184
-2.55135
-2.34856
-2.04471
-1.78529
-1.42155
-1.09984
-0.833201
-1.77722
-1.92434
-2.11834
-2.25857
-2.35094
-2.41827
-2.50347
-2.51208
-2.46154
-2.50559
-2.40517
-2.32413
-2.11513
-1.96886
-1.79206
-1.63078
-1.41973
-1.1146
-0.88881
-0.533572
-1.25612
-1.33108
-1.50934
-1.55937
-1.65279
-1.73208
-1.83264
-1.77545
-1.78181
-1.75003
-1.65552
-1.70444
-1.46546
-1.40867
-1.22956
-1.07526
-0.940431
-0.79899
-0.552024
-0.435598
-0.716753
-0.802741
-0.845151
-0.968564
-0.961512
-1.02527
-1.06178
-1.08424
-1.08896
-1.08154
-0.952639
-0.923613
-0.93207
-0.815414
-0.750343
-0.732532
-0.526504
-0.447641
-0.329129
-0.308686
-0.25924
-0.239503
-0.297838
-0.324147
-0.389204
-0.313341
-0.319863
-0.314321
-0.332956
-0.398296
-0.334859
-0.354996
-0.309043
-0.261149
-0.25138
-0.220189
-0.159965
-0.168764
-0.157729
-0.0884963
-3.27347
-3.69577
-4.09402
-4.46453
-4.75107
-5.00509
-5.07874
-5.11381
-5.15081
-5.08944
-4.9003
-4.6853
-4.34365
-4.04313
-3.56671
-3.15978
-2.68382
-2.08096
-1.43355
-0.937996
-2.84437
-3.17789
-3.55699
-3.80496
-4.06772
-4.24442
-4.35116
-4.4265
-4.35377
-4.37386
-4.19071
-3.95191
-3.77377
-3.4274
-3.11821
-2.73701
-2.2566
-1.76929
-1.19131
-0.785233
-2.25755
-2.64329
-2.96765
-3.17842
-3.40456
-3.56851
-3.70349
-3.68784
-3.65277
-3.68379
-3.52461
-3.3931
-3.11765
-2.91063
-2.59768
-2.20216
-1.92797
-1.498
-0.954817
-0.590075
-1.89136
-2.09667
-2.36423
-2.60972
-2.75894
-2.93547
-3.06081
-3.02816
-2.96557
-2.88858
-2.84788
-2.68747
-2.59178
-2.3512
-2.08111
-1.853
-1.53353
-1.12024
-0.793701
-0.547709
-1.46285
-1.66718
-1.85191
-2.04813
-2.16355
-2.2645
-2.32975
-2.29158
-2.33243
-2.28009
-2.34387
-2.09805
-1.96338
-1.85935
-1.65007
-1.39833
-1.14278
-0.856324
-0.627145
-0.39367
-1.00026
-1.15766
-1.22977
-1.44605
-1.52685
-1.62432
-1.61221
-1.66735
-1.64482
-1.58677
-1.52755
-1.47646
-1.45795
-1.32416
-1.13334
-1.04078
-0.871199
-0.657726
-0.466489
-0.251971
-0.68659
-0.708208
-0.779148
-0.882539
-0.873527
-1.02351
-0.973417
-0.998414
-0.946976
-1.00002
-0.98766
-0.899152
-0.774636
-0.804195
-0.739193
-0.596176
-0.488006
-0.380136
-0.239835
-0.128825
-0.19033
-0.197423
-0.292434
-0.284535
-0.289638
-0.3862
-0.351149
-0.326105
-0.31079
-0.33413
-0.34425
-0.265814
-0.293595
-0.264599
-0.294161
-0.205222
-0.186875
-0.168062
-0.100569
-0.0672382
-2.72881
-3.12145
-3.55026
-3.89824
-4.36983
-4.50159
-4.66007
-4.81163
-4.65638
-4.61733
-4.49026
-4.29177
-3.9862
-3.61624
-3.15956
-2.77244
-2.25476
-1.57679
-1.04168
-0.483199
-2.28912
-2.67653
-3.01258
-3.36076
-3.66996
-3.91508
-4.00817
-4.04913
-3.98952
-3.98812
-3.81922
-3.67283
-3.46005
-3.07532
-2.71407
-2.32294
-1.84551
-1.321
-0.826199
-0.252366
-1.82088
-2.19713
-2.45972
-2.83865
-3.06965
-3.30373
-3.29282
-3.43588
-3.39576
-3.27557
-3.21246
-3.04267
-2.8341
-2.50853
-2.25457
-1.85638
-1.51725
-1.1142
-0.671218
-0.206667
-1.50623
-1.75478
-2.08977
-2.36069
-2.4419
-2.69279
-2.74769
-2.77113
-2.69785
-2.71562
-2.62981
-2.46354
-2.2682
-2.10768
-1.86406
-1.56508
-1.26828
-0.849791
-0.456583
-0.186616
-1.15295
-1.42212
-1.51381
-1.80279
-1.89431
-1.99807
-2.14364
-2.13552
-2.10612
-2.10297
-1.96902
-1.96726
-1.82709
-1.67078
-1.4591
-1.1917
-1.04268
-0.753846
-0.385878
-0.13768
-0.783078
-1.00108
-1.13171
-1.22707
-1.38241
-1.46924
-1.54319
-1.50841
-1.49343
-1.55008
-1.49016
-1.28746
-1.22357
-1.11833
-0.96917
-0.858291
-0.637073
-0.461524
-0.287971
-0.100375
-0.495932
-0.614626
-0.610027
-0.734184
-0.81919
-0.860153
-0.895606
-0.885968
-0.962787
-0.896065
-0.857522
-0.813075
-0.770257
-0.718364
-0.603876
-0.600224
-0.391293
-0.279515
-0.165843
-0.031297
-0.123584
-0.202429
-0.204688
-0.267545
-0.324578
-0.323552
-0.347936
-0.222436
-0.336744
-0.290673
-0.266835
-0.258073
-0.298738
-0.179773
-0.226924
-0.198435
-0.143799
-0.0621195
0.00836561
-0.0131982
-2.16594
-2.5973
-3.04092
-3.5692
-3.847
-4.08213
-4.31653
-4.32558
-4.31651
-4.2377
-4.13991
-3.8714
-3.61133
-3.21385
-2.86518
-2.37311
-1.75731
-1.17162
-0.54151
-0.046061
-1.86213
-2.26103
-2.65498
-3.01182
-3.26926
-3.47118
-3.71554
-3.69759
-3.74828
-3.62507
-3.50425
-3.29517
-3.12889
-2.82132
-2.37237
-2.03766
-1.51918
-0.984833
-0.449911
0.0144006
-1.58411
-1.93526
-2.22852
-2.49861
-2.79416
-2.92229
-3.07447
-3.09127
-3.1708
-3.07767
-2.92695
-2.83549
-2.62378
-2.34574
-1.99971
-1.65661
-1.23965
-0.883359
-0.371144
0.0425063
-1.20811
-1.54948
-1.8281
-2.10087
-2.2098
-2.34657
-2.52748
-2.53724
-2.57939
-2.46172
-2.45525
-2.3188
-2.13538
-1.85137
-1.62328
-1.32185
-1.03615
-0.616611
-0.20613
0.0673498
-0.962242
-1.20695
-1.42792
-1.59231
-1.72191
-1.88702
-1.96753
-2.02005
-1.99766
-1.93109
-1.90201
-1.76928
-1.64469
-1.50561
-1.29677
-1.09624
-0.785026
-0.559487
-0.200952
-0.00433117
-0.693221
-0.853488
-0.974129
-1.1466
-1.2269
-1.26878
-1.4543
-1.42475
-1.46377
-1.38436
-1.3201
-1.21925
-1.21217
-1.06357
-0.987004
-0.711351
-0.563175
-0.312809
-0.186706
0.0221394
-0.424408
-0.518202
-0.584709
-0.695833
-0.795508
-0.803384
-0.859645
-0.841442
-0.817803
-0.866471
-0.758866
-0.7621
-0.654462
-0.665375
-0.566372
-0.426879
-0.342867
-0.174647
-0.0818603
-0.0460889
-0.10508
-0.145695
-0.179155
-0.229871
-0.199919
-0.292893
-0.273987
-0.295516
-0.273684
-0.29091
-0.249612
-0.199156