/*--------------------------------*- C++ -*----------------------------------*\
| =========                 |                                                 |
| \\      /  F ield         | OpenFOAM: The Open Source CFD Toolbox           |
|  \\    /   O peration     | Version:  2212                                  |
|   \\  /    A nd           | Website:  www.openfoam.com                      |
|    \\/     M anipulation  |                                                 |
\*---------------------------------------------------------------------------*/
FoamFile
{
    version     2.0;
    format      ascii;
    arch        "LSB;label=32;scalar=64";
    class       volScalarField;
    location    "0";
    object      relativeErrorField;
}
// * * * * * * * * * * * * * * * * * * * * * * * * * * * * * * * * * * * * * //

dimensions      [0 0 0 1 0 0 0];

internalField   nonuniform List<scalar> 
3200
(
0.00551553
0.00564469
0.00628563
0.00725674
0.00799117
0.00911786
0.0100264
0.0111307
0.0121216
0.0129314
0.0135559
0.0139335
0.0143708
0.0143849
0.0145276
0.0143709
0.0145669
0.0146317
0.0145578
0.0149089
0.00460544
0.0048833
0.00544369
0.00599771
0.00667762
0.00773377
0.00870552
0.00947335
0.010313
0.0111291
0.011521
0.0120762
0.0120907
0.0122924
0.0124578
0.012392
0.0123071
0.0125571
0.0127897
0.0128212
0.00406325
0.00415896
0.00449502
0.0049374
0.00562494
0.00627289
0.0073304
0.00803725
0.00871199
0.0090472
0.00972572
0.0100928
0.0102039
0.0103453
0.0104342
0.0105073
0.0105384
0.0105779
0.0106846
0.0107345
0.00303394
0.00331183
0.00339225
0.0041173
0.0047025
0.00526521
0.00610396
0.00664132
0.00734573
0.00788839
0.00793079
0.00819496
0.0082439
0.00852453
0.0086467
0.00849705
0.00851078
0.00902258
0.00885514
0.00881343
0.00238236
0.00268735
0.00264185
0.00320191
0.0035425
0.00397522
0.00466477
0.00521791
0.00536262
0.00584272
0.00603842
0.00659012
0.0064652
0.00652329
0.0067341
0.00676792
0.00666368
0.00690481
0.00682353
0.00693724
0.00183214
0.00180603
0.00221446
0.002193
0.00255472
0.00305086
0.00330967
0.00369292
0.00398464
0.0043448
0.00418835
0.00449662
0.00460395
0.00467261
0.00478994
0.00490362
0.00490112
0.00491282
0.00492949
0.00465449
0.00099888
0.00106046
0.00107331
0.00132754
0.0015777
0.00177089
0.00216903
0.00203493
0.00242813
0.00272237
0.00266708
0.00279282
0.00290315
0.00283283
0.00297207
0.00281768
0.00305449
0.002954
0.0029842
0.00316113
0.000346997
0.000392738
0.000596108
0.000372831
0.000640441
0.00042954
0.000623334
0.000488289
0.000984399
0.000880977
0.000960139
0.000975244
0.000869268
0.00100454
0.000889636
0.0011728
0.00105172
0.00107762
0.000867657
0.000929631
0.00329609
0.00369083
0.00410219
0.00496666
0.00573057
0.00660898
0.00764655
0.00860689
0.00984557
0.0104843
0.0111683
0.0115288
0.0120456
0.0120465
0.0122424
0.0121999
0.0122119
0.0123429
0.0124454
0.0131085
0.00291684
0.00318412
0.00358778
0.00420474
0.00494789
0.00583156
0.00688494
0.00761269
0.00852654
0.00904886
0.00952029
0.0101123
0.0103308
0.010552
0.0105551
0.0104281
0.0107896
0.0106992
0.0110437
0.0111301
0.00248215
0.00256627
0.003069
0.00356815
0.00425604
0.00487512
0.00580655
0.00671787
0.00741245
0.00765291
0.00817772
0.00845429
0.00869282
0.00890547
0.00905187
0.00885253
0.00898702
0.00921963
0.0093545
0.0095375
0.00212064
0.00230769
0.00237447
0.00285737
0.00324941
0.00399605
0.00445948
0.00517089
0.00599454
0.00619738
0.00673285
0.00682101
0.00724689
0.00717895
0.00738484
0.00719082
0.00756314
0.00754201
0.00778134
0.00793035
0.00142799
0.00166028
0.00190493
0.00232762
0.00270627
0.00311297
0.00360523
0.00408692
0.0046798
0.00497863
0.00516056
0.00554522
0.00569431
0.00547904
0.00579231
0.00568712
0.00575771
0.00562716
0.00610489
0.00625185
0.00113565
0.00141037
0.00156849
0.00141394
0.00203297
0.00219075
0.00264524
0.00300106
0.00329876
0.00359666
0.00386531
0.00393654
0.00396288
0.00378936
0.00393631
0.00410953
0.00422879
0.00415956
0.00433679
0.00414085
0.00058022
0.00070592
0.000691492
0.00101976
0.00116676
0.00139604
0.00146156
0.00184323
0.00195235
0.00211628
0.00212676
0.00226404
0.00226912
0.00249088
0.00249628
0.00235352
0.00266871
0.00265981
0.00261087
0.00274516
0.000335956
0.000116808
0.000277077
0.000304313
0.00044397
0.000547882
0.000561058
0.000614214
0.00079496
0.00044251
0.000897828
0.000780729
0.000801193
0.00088365
0.00087461
0.000801863
0.000973598
0.000844886
0.000745169
0.000930844
0.000803725
0.00101055
0.00136332
0.00211516
0.0028798
0.00382327
0.00467329
0.00583211
0.00664364
0.00723729
0.00800638
0.00862165
0.00866149
0.00904037
0.00902854
0.00928446
0.00938708
0.00987476
0.00985932
0.0104515
0.000758947
0.000879973
0.00119609
0.00166376
0.00252079
0.00325247
0.00411414
0.00490339
0.00573213
0.00633777
0.00702395
0.00728456
0.00770503
0.00780348
0.00799637
0.00789698
0.00829731
0.00841401
0.0088047
0.00908364
0.000733915
0.000792679
0.00101314
0.00133763
0.00220608
0.00286703
0.00346465
0.0044545
0.00479731
0.00542092
0.0059107
0.00618127
0.00666247
0.00661797
0.00667496
0.00655699
0.00700422
0.00730077
0.00731674
0.00763247
0.000604581
0.000657996
0.000990235
0.0012306
0.00169744
0.00211895
0.00285545
0.00342723
0.00409512
0.00439348
0.00477469
0.00500751
0.00542259
0.00547794
0.00557695
0.0056274
0.00585918
0.00597461
0.00600916
0.00654092
0.000438166
0.000703595
0.000584393
0.000861686
0.00132056
0.0016743
0.00211603
0.00240372
0.00288666
0.00345915
0.00374793
0.0038741
0.00413686
0.00420408
0.00436157
0.00450378
0.00443156
0.00465183
0.00471917
0.00502267
0.000469404
0.000156501
0.000387655
0.000741271
0.00102418
0.00117035
0.00158941
0.00206863
0.00208102
0.00242944
0.0024736
0.00318441
0.00322072
0.00314917
0.00301651
0.00310104
0.00339363
0.00345797
0.0034801
0.00329357
0.00029732
0.000178991
0.000263762
0.000471207
0.000650287
0.000705513
0.000947894
0.00108484
0.00158265
0.00140691
0.0015909
0.0015471
0.00179251
0.0019199
0.00205002
0.00200633
0.00189435
0.00231675
0.00220402
0.00230235
0.000274866
2.38471e-05
0.000112603
1.85592e-05
0.000230567
0.000319665
0.000371125
0.000335158
0.000420194
0.000550163
0.000411066
0.000748714
0.00057449
0.000885322
0.000744157
0.000667068
0.00056593
0.000507955
0.000385712
0.00087509
0.00187056
0.00172138
0.00164936
0.000904746
0.000345713
0.000783027
0.00150236
0.00243971
0.00339888
0.00403446
0.00455658
0.00507416
0.00530494
0.00584234
0.00595695
0.00634439
0.00641453
0.00656006
0.00718037
0.00738011
0.00166508
0.00142566
0.00134157
0.000785654
0.000102911
0.000572928
0.00143223
0.00190378
0.00276685
0.00357272
0.00413379
0.00465401
0.00507783
0.00503337
0.00516167
0.00529832
0.00576302
0.00597874
0.00621128
0.00664863
0.00130811
0.00137841
0.00117804
0.000719612
0.00027387
0.000643784
0.00110557
0.00204411
0.00237451
0.00289895
0.00352908
0.00372031
0.0039312
0.0044646
0.00451265
0.00450301
0.00476063
0.00509506
0.00561073
0.0055929
0.00119659
0.00108079
0.000993259
0.00061483
7.22883e-05
0.000462515
0.000932412
0.00161543
0.00176005
0.0023283
0.00267057
0.00297483
0.00353701
0.00340095
0.00378866
0.00369593
0.00389743
0.00432766
0.00429486
0.00463525
0.00068416
0.00088338
0.000499359
0.000583411
5.42925e-06
0.000268915
0.000647205
0.00108763
0.00150956
0.00196284
0.00208481
0.00215654
0.00261844
0.00276196
0.0028499
0.00278803
0.00292361
0.00345582
0.0034405
0.00372833
0.000702659
0.000646602
0.000356744
0.000370627
0.000209874
0.00028949
0.000572427
0.000449578
0.00100278
0.00124813
0.00144263
0.00186204
0.00181736
0.00209209
0.00202313
0.00205305
0.00215335
0.00224871
0.00229182
0.00291664
0.000374859
0.0002808
0.000382919
0.000120401
0.000135816
0.000204894
0.000465292
0.000574439
0.00072101
0.000704832
0.000966687
0.00117896
0.00110377
0.00100743
0.00134804
0.0013043
0.00125015
0.00131793
0.00139706
0.00141349
0.000147218
9.48796e-05
8.80218e-06
0.000162466
0.000101514
0.00022012
3.59503e-05
0.000263883
7.26806e-05
0.000220318
0.000264644
0.000276029
0.000370761
0.000356413
0.000302316
0.000401079
0.000306434
0.000524985
0.000456966
0.000506219
0.00444384
0.00447618
0.00419626
0.00372606
0.00319666
0.00229805
0.00175752
0.000948661
0.000342311
0.000714343
0.00121869
0.0016847
0.00206343
0.00247905
0.00284417
0.00293669
0.00329617
0.00394432
0.00431844
0.00517419
0.0040775
0.00361744
0.00359437
0.00327625
0.00307946
0.00212856
0.00114043
0.000433753
3.85688e-05
0.000690759
0.00128578
0.00168362
0.00201542
0.00233255
0.0024458
0.00301134
0.00311925
0.00321086
0.00364523
0.00419277
0.00314265
0.0032907
0.00313872
0.00269044
0.00238278
0.00177015
0.00114527
0.000790438
5.89126e-05
0.000519371
0.00079336
0.00133507
0.00190484
0.00195024
0.00207887
0.00236908
0.00250317
0.00287286
0.00341286
0.00362507
0.00260437
0.00254638
0.00257394
0.00242026
0.00181877
0.00177129
0.00112666
0.000500136
0.000144805
0.000394485
0.000696512
0.00119303
0.00135571
0.0014012
0.00161757
0.00200431
0.00225158
0.00244282
0.00271782
0.00313086
0.00195909
0.00212778
0.00198926
0.00178993
0.00165111
0.0010619
0.000651094
0.000287457
3.78309e-05
0.000137185
0.000666053
0.000698421
0.0011993
0.00134288
0.00131661
0.00169244
0.00165412
0.00175384
0.00222678
0.00253318
0.00155156
0.00145067
0.0014048
0.0012736
0.00133549
0.00107828
0.000532071
0.000310769
4.24002e-05
0.000220961
0.000612951
0.000546217
0.000753662
0.000691368
0.00119662
0.00104111
0.00103106
0.00141806
0.00165826
0.00167635
0.000752302
0.000904089
0.000673452
0.000918406
0.00080411
0.000586193
0.000398129
0.000171312
0.000259909
0.000265856
9.23893e-05
0.000425758
0.00066994
0.000438098
0.000423962
0.000683968
0.000867643
0.000807809
0.00100127
0.00109154
0.000184867
0.000262228
0.00035629
0.000221267
0.000324567
0.000183278
0.000155556
5.92427e-05
0.000187348
0.000229492
3.09666e-05
0.000353139
0.000119273
0.000305555
0.000119656
0.000200579
4.23241e-05
0.000184238
0.000395126
0.000517314
0.00684817
0.00694034
0.00675596
0.00643864
0.00600802
0.00545887
0.00444474
0.00389486
0.0031374
0.00228901
0.0018589
0.0012951
0.000926568
0.000700252
0.000238662
0.000249747
0.000657496
0.00131901
0.00161808
0.00264077
0.00594512
0.00602144
0.00582207
0.00585395
0.00539453
0.00470917
0.00417313
0.00337163
0.00269192
0.00218445
0.00142221
0.0011628
0.000818583
0.000329863
0.000244764
0.000272702
0.000509032
0.000971172
0.00170429
0.00220783
0.00496704
0.00513353
0.00519303
0.00483909
0.00442692
0.00400098
0.00346659
0.00297465
0.00228468
0.00186989
0.00127638
0.000789684
0.000565163
0.000403631
6.57691e-05
0.000136109
0.000390691
0.000979439
0.00160159
0.00194115
0.00391944
0.0042346
0.00406926
0.00413671
0.0036992
0.00346995
0.00276324
0.00226598
0.00183448
0.00123584
0.00123789
0.000919669
0.000714547
0.000322934
0.000156754
0.000124059
0.000301525
0.000847597
0.000981816
0.00146778
0.00320319
0.00326192
0.00315329
0.00296213
0.00300353
0.00260407
0.00236416
0.00208559
0.0015323
0.00106623
0.000962997
0.000452425
0.000356532
0.000179319
2.58675e-05
5.2248e-05
0.000423711
0.000676231
0.000904084
0.00109101
0.00234032
0.00225712
0.00218492
0.00221064
0.00216868
0.00183687
0.00156181
0.0013892
0.0010744
0.000808589
0.000730521
0.000817708
0.000356976
0.000272256
4.60466e-05
0.00014278
0.000311483
0.00046133
0.00066567
0.000879441
0.00137043
0.00150362
0.00147279
0.00140232
0.00146868
0.00108543
0.00111757
0.000639382
0.000639731
0.000359505
0.000345235
0.000423465
0.000183039
0.000188337
6.54792e-05
4.48142e-05
0.000151854
0.00016528
0.000526128
0.000640341
0.000597445
0.000665239
0.000520683
0.000511115
0.000457619
0.000608033
0.00045496
0.000292022
0.000189369
0.000162613
3.30387e-05
6.02785e-05
0.000181273
3.27434e-05
7.35249e-05
7.56755e-05
0.000212655
3.01285e-05
0.000175337
0.000160655
0.008737
0.00919555
0.00937467
0.00900365
0.0085299
0.00819759
0.0073966
0.00671051
0.00593229
0.00547867
0.0048833
0.00424866
0.0039508
0.00344941
0.00299077
0.00255015
0.00190778
0.00111901
0.000728626
0.000427565
0.00769752
0.00791598
0.00793917
0.00791078
0.00760499
0.00715351
0.00658836
0.00594295
0.00541721
0.00466606
0.00407701
0.00376455
0.00331365
0.00292785
0.00256066
0.00195939
0.00161636
0.000975351
0.000409487
0.000151406
0.00664836
0.00672083
0.00677476
0.00672126
0.00626474
0.00608458
0.00553163
0.00521474
0.00454019
0.00397213
0.00354845
0.00321869
0.00275787
0.00256691
0.00204192
0.00185339
0.00120872
0.000777284
0.000315684
0.000252678
0.00533189
0.0053271
0.00585381
0.00554476
0.00521675
0.00489205
0.00460744
0.00413896
0.00373627
0.00345985
0.00289594
0.00269525
0.0023528
0.00223878
0.00169732
0.00160352
0.00109142
0.000715049
0.000132378
0.000348659
0.00451969
0.00429934
0.00441156
0.00427238
0.00425778
0.00387759
0.00369998
0.00318529
0.00291845
0.0025889
0.00220809
0.00224584
0.00188385
0.00176147
0.00138969
0.00110642
0.000979901
0.000565021
0.000300357
0.000209453
0.00305246
0.00315728
0.00312209
0.00333951
0.00314054
0.00275426
0.00250483
0.00244764
0.0022532
0.00177185
0.00182546
0.00147817
0.00127859
0.00124765
0.000979665
0.000673111
0.000577669
0.000345396
0.000216709
0.000404166
0.00200512
0.00177333
0.00194126
0.00148247
0.00177641
0.00201464
0.00155298
0.00177244
0.0016877
0.00103388
0.000897633
0.000978409
0.000820389
0.000656457
0.000661043
0.000631848
0.000237768
0.000294455
4.75899e-05
0.0001277
0.000466862
0.000651387
0.000938992
0.000691642
0.000655882
0.000639219
0.000698893
0.000376986
0.000491928
0.00043758
0.000480158
0.000244679
0.000156133
0.000231289
0.000211226
0.000314733
0.00014165
4.99433e-05
8.87862e-05
0.000155548
0.0107742
0.0109789
0.011194
0.0112942
0.0109678
0.0105882
0.0102273
0.00956851
0.00885603
0.00821789
0.00765048
0.00696512
0.00645732
0.00611676
0.00537918
0.004879
0.00427596
0.00338117
0.00255411
0.00176737
0.00946942
0.00972835
0.00986859
0.00966617
0.00959786
0.00918648
0.00876838
0.00823477
0.00763398
0.00726476
0.00666483
0.00606619
0.00565245
0.00526253
0.00460977
0.00407457
0.00363038
0.003036
0.00208877
0.001358
0.00789058
0.00838795
0.00843594
0.00819766
0.00819641
0.0078536
0.00726228
0.00689838
0.00644476
0.00603563
0.0055794
0.00530681
0.00469473
0.00445494
0.00409378
0.00367915
0.00284174
0.00237142
0.00202268
0.00128987
0.00661649
0.00689751
0.00686494
0.0068396
0.00673444
0.00630732
0.00629209
0.00571792
0.00539172
0.00510413
0.00468233
0.00450996
0.00420263
0.00366084
0.00325396
0.00294246
0.00262601
0.00197241
0.00160718
0.00102246
0.00501315
0.00548832
0.00516308
0.00528985
0.00525829
0.00522067
0.00488035
0.00463302
0.00408947
0.00414358
0.00361917
0.00351096
0.00290994
0.00284656
0.00235415
0.00215083
0.00191363
0.00177295
0.00111925
0.000873233
0.00384134
0.00381191
0.0038211
0.0040025
0.00370821
0.00365775
0.00337997
0.00334314
0.00302776
0.00291422
0.00250947
0.00234479
0.00232674
0.00194889
0.00182941
0.00161156
0.00115115
0.00107975
0.000828202
0.000700519
0.00210555
0.00214276
0.00225295
0.00233711
0.00224282
0.00236549
0.00201209
0.00212126
0.00170111
0.00192796
0.00164037
0.0015593
0.00157123
0.00127915
0.00105982
0.00103525
0.000878942
0.000723208
0.000551453
0.000423627
0.00078559
0.000972582
0.000496022
0.000693631
0.000864297
0.000789556
0.00062338
0.000498711
0.000688251
0.000522089
0.000600572
0.000481562
0.000537042
0.000448165
0.000289622
0.000223988
0.000210704
0.000114772
0.000371237
0.000173848
0.0123795
0.0125786
0.0130968
0.0130114
0.013047
0.0129026
0.0121606
0.0117996
0.0111321
0.0105728
0.0100996
0.0092
0.0087814
0.00828538
0.00747951
0.00696209
0.00614886
0.00547464
0.0042859
0.00341367
0.0108375
0.011043
0.0115335
0.011515
0.0113828
0.0109423
0.0107493
0.0104171
0.00992241
0.00924628
0.00871925
0.00826334
0.00769344
0.00728394
0.00663308
0.00615459
0.00542951
0.00420296
0.00374234
0.00291845
0.00911106
0.00945035
0.00951385
0.00969244
0.00954246
0.00937331
0.00925432
0.00869313
0.00847112
0.00768589
0.00755613
0.00690661
0.00671166
0.00638928
0.00589747
0.00501958
0.0044919
0.00389098
0.00316326
0.00235849
0.00738191
0.00770518
0.00784095
0.00797124
0.00774448
0.00791682
0.00721632
0.00719646
0.00666171
0.00660767
0.00619627
0.00568406
0.00546666
0.00505356
0.00483138
0.00441018
0.00377163
0.00314818
0.00243184
0.00208024
0.00579267
0.0059536
0.00620891
0.00633523
0.00619419
0.00620896
0.005918
0.0054923
0.00528204
0.00517896
0.00482114
0.00440409
0.0042625
0.00409191
0.00358269
0.00343383
0.00284204
0.00243773
0.00212038
0.00166304
0.00423929
0.00435481
0.00456767
0.0044641
0.00444849
0.00436807
0.0040982
0.00393178
0.00380795
0.00385154
0.00341662
0.00323573
0.00309774
0.00282426
0.00258713
0.00232922
0.00203653
0.00180647
0.0017412
0.00116882
0.00232369
0.00247564
0.00258959
0.00272805
0.00275777
0.00253685
0.00253661
0.00239542
0.00264572
0.00233483
0.00211862
0.00204093
0.00185969
0.00160685
0.00142851
0.00133144
0.00113924
0.00112258
0.000898631
0.00066298
0.000952424
0.0010265
0.00104645
0.000739723
0.00102821
0.000998669
0.000785973
0.000665653
0.000781103
0.000688455
0.000541934
0.00062847
0.000584607
0.000454528
0.000758214
0.000506161
0.000511172
0.000480842
0.00050014
0.000193251
0.0133024
0.013997
0.0142607
0.0148848
0.0147482
0.0143715
0.0142356
0.0137258
0.0131184
0.0126684
0.0122371
0.0113698
0.0109215
0.0103776
0.00981227
0.00894718
0.00770147
0.0069134
0.00581926
0.00464255
0.0117431
0.0121906
0.0125869
0.0128787
0.0127255
0.0126983
0.0124838
0.0119351
0.0116576
0.0110423
0.0105679
0.0100456
0.00945382
0.00894346
0.0081035
0.00762381
0.00673176
0.00612777
0.0050068
0.0041691
0.0100972
0.0102525
0.0107158
0.010849
0.0110332
0.0109427
0.0106816
0.0102847
0.00972759
0.00928644
0.00912747
0.00859144
0.00820188
0.00764778
0.00708825
0.00632742
0.00590474
0.00476857
0.00424039
0.00357492
0.00826506
0.00873477
0.00860805
0.00906051
0.00897327
0.00885957
0.0085854
0.00863418
0.00831038
0.00768597
0.00768573
0.00703996
0.00654676
0.00603178
0.00598894
0.00534203
0.00469016
0.0042056
0.00351268
0.00295822
0.00623358
0.00653124
0.00668983
0.00695496
0.00690505
0.00697041
0.0067628
0.00663069
0.00644043
0.00614166
0.00588771
0.00540122
0.00532145
0.005082
0.00468387
0.00409955
0.0037175
0.0030689
0.00281801
0.0021048
0.0044279
0.00485541
0.00513742
0.00512735
0.00513671
0.0050347
0.00503626
0.00462392
0.00453461
0.00442121
0.00430666
0.00392094
0.00364024
0.00348005
0.00317395
0.00285225
0.00262359
0.00256113
0.00213178
0.00178688
0.00294879
0.0028319
0.00314938
0.00327671
0.00301728
0.00284501
0.00309427
0.0029152
0.00275157
0.00285625
0.00260102
0.0024909
0.00239305
0.00217422
0.00217143
0.00185796
0.00165899
0.00129411
0.00135161
0.000967601
0.00093412
0.00113558
0.000875778
0.000991891
0.000759806
0.00118554
0.00106034
0.000854395
0.000801815
0.00075942
0.000705955
0.00087046
0.00064921
0.000916838
0.000498728
0.000684006
0.000572508
0.000692059
0.000533172
0.000571917
0.0144529
0.0151256
0.0156021
0.0156614
0.0160072
0.0159923
0.0156716
0.0153621
0.0148831
0.0141302
0.0139035
0.0130206
0.0126776
0.011878
0.0110787
0.010443
0.0092131
0.0081205
0.00694578
0.00580213
0.0123313
0.0130907
0.0135532
0.0139852
0.0138216
0.0140612
0.0135005
0.0132236
0.012887
0.0124693
0.0120239
0.0116
0.0110417
0.0100953
0.00957555
0.00911562
0.00782226
0.0072032
0.00594214
0.00486333
0.0108596
0.0110461
0.0115105
0.0118831
0.011749
0.0119889
0.0117363
0.0114749
0.0110414
0.0105263
0.0102257
0.00998542
0.00951437
0.00887458
0.00827488
0.0075312
0.00683216
0.00593717
0.00504929
0.00395955
0.00850981
0.00919131
0.00941931
0.00955528
0.00977623
0.00988969
0.00953958
0.00933052
0.00916473
0.00900281
0.00832518
0.00799525
0.00766563
0.00719143
0.00680195
0.00630497
0.00570528
0.00504922
0.00413252
0.00353724
0.00685358
0.00703878
0.00749832
0.00762706
0.00775861
0.0076861
0.00761782
0.00739741
0.00710685
0.00693505
0.00649422
0.00643425
0.00592061
0.00564315
0.00521518
0.0050219
0.00452521
0.0039558
0.00352522
0.00278846
0.00489395
0.00500377
0.00531636
0.00549925
0.00552697
0.00542913
0.00551339
0.0053798
0.00537325
0.00505149
0.00492208
0.00465892
0.00440411
0.00429853
0.00379539
0.00358119
0.00326576
0.00275815
0.00249537
0.00179167
0.00308396
0.00335209
0.00331912
0.00315942
0.00353261
0.00342289
0.00329854
0.00310686
0.00316154
0.00308141
0.00276286
0.00268921
0.00275377
0.00244369
0.00224442
0.00214554
0.00183643
0.00160439
0.00138265
0.0012381
0.000872821
0.00110771
0.00125622
0.000980267
0.00119521
0.0012169
0.00115599
0.00089624
0.00100472
0.000893228
0.00108269
0.000933974
0.00102562
0.000944912
0.000822423
0.000860865
0.000434352
0.000511177
0.000495762
0.000373262
0.0146405
0.01562
0.0162771
0.0168476
0.0170376
0.0170589
0.01705
0.0166341
0.0162521
0.015846
0.0151606
0.0142701
0.0138259
0.013335
0.0124036
0.0111725
0.0103536
0.00898158
0.00766333
0.00658918
0.0128503
0.0134377
0.0142869
0.0145855
0.0148686
0.0147717
0.0145582
0.0143149
0.0142298
0.0137534
0.0131711
0.0128418
0.0119488
0.0114425
0.010615
0.00982316
0.00897026
0.00768968
0.00659602
0.00551896
0.0109896
0.0113633
0.0123249
0.0124081
0.0126436
0.012593
0.0123888
0.0122395
0.0121408
0.0117342
0.0111086
0.0108809
0.0103794
0.00958947
0.00881489
0.00843403
0.00743803
0.00674682
0.00561773
0.00462351
0.00884663
0.00921464
0.0100247
0.0101682
0.010423
0.0104188
0.0102506
0.0101924
0.0100054
0.00981841
0.00913036
0.00911836
0.00860297
0.00801878
0.00740613
0.00698399
0.00627388
0.00548694
0.00488347
0.00385688
0.00732719
0.00745462
0.00782062
0.00789755
0.00813222
0.00828902
0.00813508
0.00805784
0.00779653
0.0076891
0.00739559
0.00696715
0.00688621
0.00631864
0.00603967
0.00540155
0.00497731
0.00419536
0.00353168
0.00308116
0.00514359
0.00544881
0.00558188
0.005847
0.00590562
0.00596459
0.00557664
0.00556154
0.00558276
0.00557897
0.00529227
0.00503474
0.00471748
0.00453992
0.00431351
0.00385243
0.00342061
0.00293318
0.00246229
0.00214606
0.00299828
0.00327444
0.00335582
0.00344302
0.00374426
0.00369744
0.00365696
0.00351403
0.0032982
0.00330844
0.00320555
0.00317224
0.00292982
0.00261255
0.00256288
0.00210173
0.00211635
0.00202469
0.00141457
0.00142383
0.000932242
0.00116201
0.00110089
0.000983117
0.00120811
0.00127192
0.00121414
0.00135278
0.00138716
0.00117346
0.00131103
0.0010792
0.00104461
0.00111542
0.00103219
0.000835737
0.000627262
0.000455553
0.000482991
0.000691077
0.0152091
0.015848
0.0168964
0.0174009
0.017597
0.0177539
0.0178009
0.0175178
0.0174156
0.0168535
0.0163611
0.015666
0.0148586
0.0142459
0.0130797
0.0121181
0.0108629
0.00958867
0.0083389
0.00681387
0.0130331
0.0138105
0.0145043
0.0151899
0.0153913
0.0155564
0.0153454
0.0152418
0.0151683
0.0146551
0.0141436
0.013581
0.0128757
0.0121894
0.0114605
0.0104657
0.00939999
0.00835454
0.00712529
0.00602138
0.0110425
0.0117021
0.0124489
0.01287
0.0130667
0.0129796
0.0132161
0.0130379
0.0126254
0.0125545
0.0119986
0.0116243
0.0112971
0.0103008
0.00967281
0.00885524
0.0078699
0.00704363
0.00595855
0.00517173
0.00900142
0.00963571
0.0102202
0.010701
0.0108168
0.0107833
0.010929
0.0107197
0.0105481
0.0102681
0.00998566
0.00936889
0.00907901
0.00861659
0.00784899
0.00744995
0.0064063
0.00583474
0.00498553
0.00429198
0.00719951
0.00769466
0.00791102
0.00820258
0.0083896
0.00852036
0.00840231
0.00850654
0.00827532
0.00806396
0.00782716
0.00753771
0.00717502
0.00696506
0.00634284
0.00560315
0.005021
0.0045445
0.00384804
0.00346891
0.00517885
0.00544571
0.00558623
0.00589583
0.00620791
0.00618586
0.0059146
0.00629594
0.00599933
0.00587328
0.00560877
0.00543855
0.00506579
0.00491619
0.0044319
0.00404327
0.00359377
0.00304127
0.00281023
0.00234971
0.00314532
0.00321812
0.00347289
0.00356984
0.00371555
0.00380658
0.00388134
0.00364002
0.00333945
0.00332199
0.00337537
0.003261
0.00311306
0.00308793
0.00282307
0.00242212
0.00213681
0.00195177
0.00193069
0.0012701
0.001096
0.000978101
0.00119606
0.000995103
0.00135199
0.00146217
0.00111159
0.00131802
0.00122918
0.00108998
0.00109955
0.000853365
0.00123576
0.00084606
0.000819253
0.00099693
0.000685667
0.000804774
0.000560675
0.000312405
0.0148871
0.0158063
0.016613
0.0172925
0.0180434
0.0181862
0.018115
0.0179654
0.0177599
0.0173534
0.016868
0.0161075
0.015254
0.0145705
0.0135406
0.0125534
0.0112816
0.00966635
0.00815207
0.00684901
0.0129118
0.0137222
0.0144207
0.0150295
0.0155744
0.0155825
0.0157799
0.0155955
0.0154832
0.0148626
0.0147175
0.013853
0.0134658
0.0125511
0.0117936
0.0106487
0.00961556
0.00836157
0.00684373
0.00597597
0.0108995
0.0116912
0.0123968
0.0127743
0.0133897
0.0133563
0.0135348
0.0133526
0.0128246
0.0128949
0.0126305
0.0119534
0.0113806
0.0107631
0.0101474
0.00916138
0.00794648
0.00694129
0.00587154
0.00504549
0.00909333
0.00949397
0.0101806
0.0104923
0.0108398
0.0109424
0.0111979
0.0111146
0.0108229
0.0105574
0.0103463
0.0095781
0.00918417
0.00867375
0.00818315
0.00737092
0.00673601
0.00583981
0.00499916
0.00427617
0.00714949
0.00742282
0.00787364
0.00855594
0.00864532
0.0087541
0.008669
0.00843292
0.00845937
0.00806087
0.00808591
0.00788098
0.0073805
0.00699629
0.00609258
0.00584646
0.00526512
0.00448848
0.00350844
0.00308917
0.00503785
0.00505301
0.00562777
0.00576622
0.00624396
0.00627064
0.00621766
0.00626724
0.0059495
0.00585385
0.00590681
0.00547872
0.00522395
0.00514079
0.00473101
0.00413658
0.00355755
0.00330828
0.00279307
0.00233319
0.00309993
0.00346156
0.003622
0.00351938
0.00364401
0.00381932
0.00392971
0.00382722
0.0038058
0.0036779
0.00350773
0.00332019
0.00358024
0.00311665
0.00275698
0.0025157
0.00216863
0.00182755
0.00180177
0.00113523
0.00122903
0.00102602
0.00121346
0.0010904
0.00120979
0.00116351
0.0014503
0.00134873
0.00127611
0.00110922
0.00119611
0.00116785
0.00111955
0.00111307
0.000898957
0.000776178
0.00103246
0.00065463
0.000657885
0.000329478
0.0141491
0.0150399
0.0162257
0.0169993
0.0176491
0.0180019
0.0178319
0.0179281
0.0178423
0.0172008
0.016748
0.0161009
0.0155212
0.0143981
0.0136701
0.012302
0.0111903
0.00950781
0.00788342
0.00636574
0.0122687
0.0131965
0.0140044
0.0147147
0.0151447
0.015359
0.0157437
0.0158819
0.0154961
0.0151576
0.0146774
0.0141389
0.0135419
0.0127383
0.0117375
0.0107838
0.00950224
0.00804454
0.00669408
0.00555924
0.0105129
0.011172
0.0118793
0.0125271
0.0128122
0.0130209
0.0132542
0.013344
0.0133632
0.0127796
0.0126975
0.0119799
0.0115359
0.0108121
0.00983836
0.00896226
0.00812675
0.00672865
0.00566296
0.0047248
0.00877598
0.00920992
0.00978045
0.0102752
0.0106385
0.0108958
0.0108431
0.0107446
0.0108561
0.0106844
0.0103589
0.00987677
0.009311
0.00874291
0.00805112
0.00743851
0.00645726
0.00554033
0.00462056
0.00377489
0.00674519
0.00711859
0.0076165
0.00802157
0.00825396
0.00863883
0.00886928
0.00857154
0.00855091
0.00826865
0.00804048
0.00779021
0.00748437
0.00697624
0.00632916
0.00590276
0.00516184
0.00421562
0.00365174
0.00280932
0.00487779
0.00491407
0.0056088
0.00575166
0.00594167
0.00605215
0.00620569
0.00622166
0.00616868
0.00603787
0.00589436
0.00558509
0.00528386
0.00511947
0.00442687
0.00434207
0.00358893
0.00293639
0.00234588
0.00217878
0.00297654
0.00320773
0.00331093
0.00344885
0.00374791
0.00370328
0.0037083
0.00361024
0.00386855
0.00359966
0.00357173
0.00357204
0.00322929
0.00286541
0.00297108
0.00263434
0.00219946
0.00183122
0.00155861
0.00129662
0.000953449
0.00104354
0.00127816
0.00125543
0.00134383
0.00115446
0.00131268
0.00130616
0.00131573
0.00108487
0.00109992
0.00104588
0.000868135
0.000941245
0.00122075
0.000690603
0.000609511
0.000725594
0.000366112
0.000267156
0.0131137
0.014109
0.0152912
0.0162643
0.0167137
0.0174239
0.0177044
0.0176434
0.0174687
0.0171704
0.0168676
0.0159285
0.0153972
0.0142319
0.0131965
0.0118931
0.0104418
0.00881053
0.0071411
0.00559383
0.0113353
0.012135
0.0133789
0.0139456
0.0145714
0.0149814
0.0152072
0.015234
0.0151087
0.0147616
0.0145499
0.0138103
0.0131815
0.0123775
0.0112661
0.0102071
0.00900727
0.00754446
0.00596182
0.00476102
0.00956226
0.0104506
0.0112464
0.0119917
0.0125416
0.0127526
0.0131377
0.0128727
0.0129075
0.0126622
0.0124008
0.0117571
0.0112833
0.0103111
0.00966415
0.00863229
0.00761915
0.00646406
0.00521846
0.0041976
0.00790047
0.00849627
0.00917571
0.00981977
0.0103084
0.010678
0.010566
0.0107523
0.0106028
0.0103435
0.00988548
0.00962066
0.00929628
0.00862853
0.00790398
0.00733114
0.00615508
0.00541878
0.00426237
0.0032357
0.00614853
0.00662788
0.00717766
0.00778812
0.00805797
0.0081931
0.00844679
0.00849446
0.00822416
0.00829751
0.00792237
0.00761029
0.00719014
0.00684802
0.00627167
0.00551179
0.00486112
0.00425595
0.0031705
0.00269641
0.00456364
0.0046731
0.00513982
0.0053936
0.00585381
0.00601924
0.0061158
0.00622283
0.006026
0.00621847
0.00569021
0.00542024
0.00505255
0.00480322
0.00460855
0.00404784
0.00355291
0.00288388
0.00223509
0.00166178
0.00283089
0.00287468
0.00299426
0.00334674
0.0035425
0.00385172
0.00360236
0.00371898
0.00350398
0.00362157
0.00352743
0.00349653
0.003334
0.00298795
0.00277312
0.00236847
0.00210705
0.0017968
0.0012779
0.00104693
0.00108984
0.000931506
0.000900679
0.00106625
0.00121908
0.0012103
0.00143122
0.00115586
0.00139526
0.00120274
0.00124206
0.0011858
0.000856157
0.00103639
0.000969638
0.000911515
0.000797484
0.000675735
0.000478998
0.000445029
0.0117327
0.0125175
0.0140093
0.0151687
0.0157529
0.0165364
0.0169173
0.0167291
0.0166314
0.0164613
0.0161825
0.0151629
0.0144498
0.0133072
0.0121878
0.0111654
0.00941962
0.00792343
0.00600246
0.00421591
0.010298
0.0110313
0.0123873
0.0129841
0.0137155
0.0143651
0.0143976
0.0144411
0.0144624
0.0144157
0.0141276
0.0130422
0.0125254
0.01156
0.010684
0.00926428
0.00823123
0.00671534
0.00498438
0.00389728
0.00858184
0.00945944
0.0101891
0.0110699
0.0116827
0.0120328
0.0121635
0.0123184
0.0121774
0.0122094
0.0116501
0.0109297
0.0103992
0.00980716
0.00902064
0.00797644
0.00681802
0.00560019
0.00419683
0.00291779
0.00709431
0.00765975
0.00846153
0.00915488
0.00954286
0.009965
0.0103334
0.0102157
0.00994151
0.00978763
0.00938624
0.00917539
0.00879427
0.00803767
0.00739992
0.00644365
0.00562719
0.00448156
0.00346799
0.00262761
0.00567172
0.00614052
0.00675856
0.00720488
0.00749844
0.00771214
0.00798294
0.00800961
0.00784799
0.00798814
0.00766797
0.00740988
0.00674395
0.00627819
0.00571507
0.00520144
0.00452896
0.00355613
0.00283617
0.00170281
0.0040577
0.00429948
0.00487475
0.00503579
0.00533691
0.00559239
0.00591658
0.00573153
0.00575179
0.00564906
0.005344
0.00550203