/*--------------------------------*- C++ -*----------------------------------*\
| =========                 |                                                 |
| \\      /  F ield         | OpenFOAM: The Open Source CFD Toolbox           |
|  \\    /   O peration     | Version:  2212                                  |
|   \\  /    A nd           | Website:  www.openfoam.com                      |
|    \\/     M anipulation  |                                                 |
\*---------------------------------------------------------------------------*/
FoamFile
{
    version     2.0;
    format      ascii;
    arch        "LSB;label=32;scalar=64";
    class       volScalarField;
    location    "0";
    object      T;
}
// * * * * * * * * * * * * * * * * * * * * * * * * * * * * * * * * * * * * * //

dimensions      [0 0 0 1 0 0 0];

internalField   nonuniform List<scalar> 
3200
(
342.16
343.103
344.171
344.662
345.701
346.388
346.848
347.261
347.296
347.356
347.235
346.963
347.032
346.371
345.859
345.038
344.359
343.317
342.376
341.836
336.635
337.453
338.4
338.758
339.668
340.265
340.706
341.073
341.053
341.143
341.002
340.751
340.845
340.253
339.817
339.061
338.511
337.6
336.811
336.42
331.084
331.758
332.545
332.852
333.653
334.099
334.52
334.829
334.836
334.891
334.75
334.491
334.615
334.097
333.77
333.118
332.654
331.87
331.195
330.976
325.521
326.018
326.657
326.917
327.605
327.967
328.287
328.555
328.577
328.588
328.487
328.272
328.3
327.925
327.667
327.141
326.767
326.163
325.573
325.415
319.883
320.261
320.72
320.978
321.53
321.741
321.989
322.231
322.275
322.279
322.203
322.075
322.016
321.77
321.577
321.162
320.845
320.417
319.921
319.814
314.215
314.505
314.797
315.013
315.389
315.532
315.725
315.928
315.984
315.938
315.909
315.824
315.753
315.583
315.447
315.125
314.887
314.63
314.29
314.178
308.564
308.736
308.868
309.073
309.228
309.363
309.455
309.574
309.616
309.583
309.547
309.515
309.474
309.393
309.303
309.075
308.93
308.814
308.603
308.526
302.898
302.927
302.959
303.061
303.073
303.15
303.171
303.21
303.21
303.219
303.195
303.179
303.168
303.148
303.109
303.051
302.994
302.954
302.885
302.874
342.986
344.014
344.881
345.501
346.441
347.009
347.625
347.952
348.19
348.216
348.164
347.967
347.86
347.248
346.618
345.927
345.131
344.227
343.162
342.536
337.289
338.205
338.941
339.459
340.352
340.765
341.306
341.604
341.77
341.829
341.708
341.593
341.541
340.984
340.419
339.842
339.112
338.381
337.435
336.962
331.64
332.361
333.004
333.402
334.201
334.503
335.034
335.283
335.377
335.401
335.246
335.225
335.183
334.705
334.246
333.799
333.093
332.521
331.699
331.297
325.956
326.558
327.005
327.375
328.044
328.215
328.711
328.964
328.949
328.964
328.846
328.815
328.773
328.443
328.052
327.681
327.168
326.656
325.963
325.663
320.221
320.682
320.996
321.335
321.868
321.943
322.333
322.567
322.524
322.557
322.467
322.431
322.396
322.155
321.821
321.569
321.161
320.748
320.286
319.995
314.484
314.839
314.992
315.279
315.619
315.688
315.988
316.165
316.074
316.072
316.051
316.021
315.986
315.848
315.598
315.467
315.16
314.833
314.563
314.301
308.738
308.929
309.01
309.162
309.36
309.473
309.613
309.746
309.654
309.647
309.654
309.607
309.615
309.514
309.36
309.295
309.12
308.891
308.753
308.632
302.933
302.997
303.004
303.062
303.133
303.182
303.211
303.284
303.229
303.204
303.225
303.216
303.209
303.187
303.14
303.123
303.061
302.981
302.926
302.901
344.168
344.954
345.845
346.898
347.552
348.098
348.582
348.742
349.208
349.505
349.245
349.157
349.047
348.654
347.85
347.056
346.343
345.241
343.974
343.307
338.346
338.937
339.679
340.658
341.282
341.659
342.115
342.247
342.643
342.938
342.648
342.585
342.505
342.22
341.474
340.804
340.205
339.207
338.162
337.589
332.513
333.002
333.551
334.407
334.978
335.242
335.62
335.75
336.085
336.336
336.074
336.021
335.969
335.742
335.122
334.537
334.038
333.194
332.303
331.858
326.663
327.007
327.429
328.179
328.609
328.832
329.167
329.293
329.543
329.721
329.56
329.455
329.438
329.244
328.734
328.263
327.879
327.141
326.484
326.085
320.844
321.027
321.322
321.951
322.242
322.444
322.699
322.828
322.984
323.119
323.044
322.881
322.919
322.725
322.34
321.993
321.685
321.094
320.636
320.288
314.915
315.021
315.231
315.701
315.89
316.031
316.191
316.325
316.411
316.477
316.495
316.359
316.346
316.229
315.963
315.717
315.487
315.054
314.735
314.53
308.954
309.034
309.131
309.425
309.529
309.651
309.705
309.807
309.83
309.887
309.911
309.819
309.81
309.744
309.549
309.437
309.295
309.037
308.834
308.709
302.982
303.02
303.029
303.165
303.205
303.25
303.257
303.294
303.305
303.321
303.306
303.289
303.288
303.237
303.189
303.153
303.096
303.036
302.956
302.882
345.177
345.967
346.887
348.03
348.791
349.354
349.639
350.182
350.511
350.583
350.436
350.409
349.981
349.714
348.87
348.123
347.48
346.172
345.186
344.256
339.186
339.833
340.636
341.645
342.28
342.782
343.01
343.51
343.754
343.778
343.678
343.702
343.364
343.059
342.339
341.726
341.171
340.024
339.217
338.438
333.182
333.73
334.392
335.234
335.779
336.155
336.399
336.818
336.986
337.013
336.948
336.971
336.719
336.406
335.834
335.327
334.877
333.865
333.265
332.563
327.166
327.636
328.124
328.832
329.323
329.579
329.749
330.141
330.215
330.246
330.245
330.262
330.056
329.769
329.346
328.896
328.543
327.687
327.264
326.667
321.138
321.477
321.844
322.404
322.849
323.029
323.128
323.482
323.508
323.551
323.519
323.558
323.347
323.14
322.796
322.452
322.199
321.51
321.214
320.741
315.096
315.328
315.56
315.984
316.326
316.47
316.496
316.776
316.811
316.801
316.829
316.807
316.677
316.579
316.272
316.037
315.849
315.364
315.17
314.846
309.076
309.177
309.372
309.563
309.831
309.879
309.899
310.095
310.113
310.053
310.13
310.083
310.012
309.996
309.757
309.638
309.495
309.228
309.122
308.909
303.042
303.051
303.153
303.207
303.312
303.306
303.318
303.371
303.395
303.362
303.388
303.388
303.364
303.353
303.246
303.227
303.181
303.097
303.058
302.974
346.134
346.983
348.016
349.182
350.156
350.39
351.115
351.517
351.667
351.799
351.755
351.789
351.388
350.791
350.007
349.355
348.508
347.377
346.254
345.4
340.077
340.722
341.578
342.695
343.456
343.654
344.272
344.669
344.773
344.941
344.866
344.905
344.528
344.004
343.367
342.686
342.051
341.049
340.094
339.393
333.939
334.443
335.197
336.171
336.791
336.918
337.438
337.811
337.9
338.065
337.964
337.994
337.661
337.267
336.664
336.106
335.58
334.731
333.977
333.376
327.783
328.2
328.844
329.609
330.144
330.211
330.631
330.956
331.011
331.182
331.083
331.098
330.85
330.53
329.982
329.571
329.061
328.426
327.826
327.349
321.604
321.948
322.434
323.048
323.418
323.482
323.817
324.132
324.096
324.265
324.214
324.177
324.01
323.751
323.322
323.026
322.579
322.14
321.68
321.298
315.438
315.676
316.024
316.465
316.737
316.791
317.003
317.236
317.23
317.352
317.329
317.282
317.13
316.981
316.646
316.459
316.115
315.836
315.501
315.235
309.293
309.39
309.607
309.897
310.019
310.068
310.185
310.348
310.349
310.423
310.41
310.395
310.287
310.215
309.992
309.902
309.661
309.499
309.304
309.149
303.118
303.152
303.217
303.317
303.358
303.377
303.414
303.465
303.459
303.51
303.475
303.495
303.459
303.421
303.354
303.311
303.234
303.186
303.133
303.068
347.357
348.027
349.264
350.267
351.171
351.95
352.384
352.574
352.908
352.978
353.066
352.868
352.553
352.113
351.214
350.528
349.546
348.437
347.51
346.593
341.076
341.633
342.712
343.571
344.369
344.99
345.445
345.562
345.849
345.914
345.977
345.792
345.491
345.135
344.38
343.777
342.901
341.95
341.16
340.384
334.768
335.184
336.131
336.894
337.602
338.044
338.44
338.556
338.809
338.858
338.913
338.76
338.47
338.162
337.618
337.07
336.283
335.505
334.837
334.172
328.424
328.744
329.553
330.238
330.783
331.113
331.462
331.552
331.794
331.792
331.844
331.731
331.489
331.195
330.772
330.377
329.694
329.05
328.537
327.986
322.101
322.314
323.004
323.537
323.989
324.189
324.452
324.564
324.732
324.738
324.775
324.656
324.526
324.225
323.96
323.619
323.093
322.543
322.185
321.749
315.792
315.953
316.444
316.827
317.161
317.327
317.436
317.561
317.662
317.689
317.712
317.592
317.54
317.271
317.113
316.859
316.474
316.068
315.853
315.536
309.517
309.597
309.875
310.113
310.292
310.4
310.439
310.552
310.609
310.666
310.638
310.543
310.528
310.342
310.281
310.073
309.841
309.626
309.533
309.318
303.206
303.212
303.327
303.371
303.45
303.471
303.511
303.549
303.556
303.575
303.559
303.525
303.53
303.477
303.442
303.384
303.294
303.232
303.199
303.126
348.247
349.15
350.349
351.286
352.291
352.881
353.522
353.721
354.135
354.12
354.125
353.992
353.62
353.206
352.493
351.778
350.744
349.86
348.581
347.558
341.874
342.618
343.663
344.384
345.34
345.823
346.373
346.514
346.896
346.898
346.926
346.741
346.452
346.134
345.521
344.905
343.942
343.235
342.125
341.299
335.526
336.076
336.937
337.535
338.403
338.722
339.264
339.317
339.7
339.691
339.724
339.546
339.327
339.069
338.575
338.022
337.191
336.613
335.638
334.983
329.113
329.556
330.187
330.775
331.418
331.644
332.162
332.21
332.501
332.47
332.489
332.327
332.247
331.957
331.602
331.123
330.472
329.963
329.136
328.641
322.621
323.013
323.467
323.942
324.4
324.629
325.067
325.071
325.291
325.284
325.212
325.096
325.06
324.819
324.578
324.244
323.761
323.321
322.606
322.303
316.153
316.459
316.743
317.091
317.435
317.582
317.963
317.906
318.087
318.101
317.982
317.894
317.888
317.738
317.593
317.337
317.011
316.701
316.095
315.988
309.726
309.899
310.046
310.279
310.467
310.563
310.81
310.774
310.847
310.899
310.8
310.728
310.731
310.671
310.567
310.439
310.203
310.037
309.672
309.58
303.245
303.314
303.371
303.442
303.515
303.558
303.618
303.618
303.632
303.666
303.606
303.579
303.61
303.56
303.539
303.496
303.425
303.373
303.253
303.194
349.111
350.118
351.396
352.331
353.194
354.039
354.634
354.945
355.276
355.306
355.348
354.974
354.581
354.371
353.762
353.051
351.874
350.804
349.543
348.371
342.606
343.435
344.609
345.36
346.097
346.842
347.331
347.6
347.898
347.944
347.972
347.615
347.265
347.132
346.641
345.983
344.985
344.071
342.912
341.977
336.044
336.77
337.764
338.398
339.012
339.63
340.085
340.288
340.529
340.566
340.611
340.255
339.969
339.911
339.465
338.917
338.073
337.327
336.311
335.632
329.508
330.118
330.879
331.453
331.953
332.44
332.837
332.921
333.14
333.165
333.219
332.906
332.698
332.672
332.298
331.855
331.171
330.546
329.7
329.236
322.949
323.511
324.001
324.458
324.877
325.24
325.542
325.604
325.746
325.771
325.846
325.576
325.502
325.433
325.159
324.784
324.261
323.776
323.121
322.767
316.413
316.821
317.147
317.497
317.829
318.051
318.234
318.263
318.377
318.401
318.479
318.257
318.252
318.176
317.978
317.699
317.333
316.973
316.527
316.283
309.847
310.137
310.291
310.494
310.714
310.818
310.943
310.968
311.033
311.055
311.113
310.954
311.011
310.932
310.806
310.624
310.402
310.215
309.927
309.796
303.306
303.408
303.451
303.546
303.582
303.617
303.648
303.667
303.693
303.712
303.732
303.657
303.707
303.673
303.617
303.554
303.478
303.442
303.326
303.286
349.922
351.065
352.367
353.208
354.061
354.895
355.574
356.009
356.451
356.37
356.408
356.261
355.537
355.233
354.717
353.742
352.791
351.669
350.415
349.366
343.33
344.278
345.405
346.143
346.828
347.535
348.2
348.541
348.919
348.855
348.847
348.77
348.141
347.866
347.43
346.58
345.743
344.816
343.703
342.814
336.714
337.491
338.419
339.071
339.676
340.199
340.839
341.091
341.369
341.32
341.323
341.254
340.788
340.593
340.133
339.417
338.684
337.91
336.981
336.275
330.051
330.707
331.422
331.923
332.482
332.891
333.431
333.659
333.796
333.749
333.805
333.803
333.419
333.228
332.846
332.276
331.633
331.002
330.198
329.708
323.366
323.893
324.424
324.76
325.264
325.598
326.025
326.166
326.273
326.188
326.311
326.327
326.015
325.844
325.609
325.113
324.552
324.061
323.469
323.119
316.67
317.078
317.446
317.655
318.069
318.304
318.598
318.667
318.791
318.693
318.767
318.811
318.599
318.432
318.338
317.954
317.538
317.135
316.717
316.481
310.039
310.249
310.445
310.597
310.894
311.003
311.159
311.226
311.315
311.205
311.275
311.289
311.167
311.041
311.026
310.778
310.503
310.29
310.03
309.907
303.36
303.402
303.494
303.536
303.653
303.679
303.737
303.801
303.801
303.736
303.787
303.793
303.74
303.7
303.705
303.605
303.502
303.441
303.348
303.329
350.869
351.949
353.244
353.991
354.946
355.99
356.55
356.844
357.221
357.247
357.168
356.928
356.651
356.174
355.336
354.582
353.652
352.378
351.166
349.987
344.105
344.987
346.148
346.804
347.623
348.52
349.053
349.278
349.626
349.653
349.558
349.368
349.146
348.702
347.884
347.293
346.503
345.395
344.346
343.364
337.334
338.026
339.001
339.645
340.274
341.033
341.566
341.693
341.999
342.048
341.902
341.752
341.574
341.207
340.507
340.016
339.348
338.405
337.568
336.723
330.578
331.132
331.882
332.461
332.944
333.577
334.037
334.127
334.439
334.404
334.249
334.152
334.002
333.697
333.132
332.733
332.208
331.435
330.736
330.064
323.801
324.214
324.792
325.223
325.616
326.16
326.519
326.58
326.827
326.794
326.588
326.572
326.47
326.211
325.792
325.455
325.044
324.451
323.885
323.371
317.04
317.306
317.701
317.999
318.297
318.733
318.947
318.994
319.221
319.166
318.964
318.957
318.934
318.707
318.428
318.187
317.879
317.446
317.073
316.645
310.237
310.411
310.626
310.806
310.97
311.256
311.371
311.402
311.572
311.53
311.377
311.394
311.359
311.237
311.106
310.902
310.734
310.462
310.248
309.991
303.425
303.505
303.564
303.626
303.678
303.757
303.809
303.83
303.891
303.865
303.837
303.802
303.787
303.752
303.722
303.65
303.597
303.513
303.441
303.339
351.644
352.797
353.935
354.977
355.868
356.605
357.301
357.54
358.166
357.97
358.016
357.864
357.534
357.163
356.058
355.247
354.371
353.373
352.004
350.683
344.79
345.763
346.732
347.674
348.448
349.102
349.661
349.885
350.335
350.236
350.278
350.132
349.801
349.567
348.569
347.854
347.153
346.259
345.052
343.941
337.934
338.685
339.515
340.388
341.02
341.548
342.062
342.24
342.563
342.476
342.539
342.425
342.16
341.952
341.099
340.508
339.93
339.124
338.09
337.191
331.105
331.634
332.315
333.086
333.633
333.993
334.376
334.564
334.828
334.719
334.794
334.735
334.473
334.284
333.652
333.169
332.703
332.052
331.155
330.485
324.225
324.618
325.093
325.75
326.204
326.436
326.741
326.889
327.095
326.999
327.096
327.037
326.797
326.603
326.202
325.858
325.453
324.945
324.241
323.742
317.334
317.649
317.869
318.404
318.725
318.891
319.121
319.214
319.377
319.296
319.362
319.313
319.139
318.962
318.718
318.533
318.197
317.812
317.323
316.952
310.415
310.611
310.707
311.019
311.269
311.377
311.527
311.535
311.692
311.594
311.619
311.592
311.522
311.365
311.22
311.155
310.962
310.706
310.412
310.178
303.492
303.54
303.582
303.675
303.796
303.818
303.874
303.852
303.944
303.876
303.902
303.879
303.868
303.811
303.774
303.748
303.67
303.597
303.485
303.418
352.303
353.393
354.862
355.62
356.428
357.408
358.149
358.303
358.613
358.624
358.847
358.726
358.248
357.835
356.968
356.233
355.075
354.272
352.841
351.506
345.393
346.301
347.568
348.194
348.937
349.713
350.419
350.498
350.813
350.796
351.025
350.913
350.512
350.116
349.396
348.759
347.743
347.025
345.811
344.664
338.472
339.182
340.261
340.773
341.423
342.054
342.703
342.728
343.003
343.024
343.209
343.071
342.756
342.359
341.761
341.276
340.462
339.745
338.779
337.772
331.543
332.043
332.938
333.383
333.874
334.419
334.98
334.954
335.216
335.25
335.364
335.194
335.019
334.657
334.102
333.784
333.151
332.535
331.721
330.93
324.571
324.912
325.638
325.979
326.363
326.789
327.209
327.166
327.42
327.44
327.516
327.351
327.261
326.947
326.531
326.299
325.827
325.292
324.699
324.066
317.617
317.772
318.314
318.56
318.889
319.158
319.463
319.408
319.582
319.618
319.644
319.528
319.465
319.245
318.972
318.812
318.509
318.087
317.657
317.198
310.608
310.659
310.992
311.127
311.34
311.536
311.715
311.619
311.76
311.786
311.778
311.771
311.684
311.546
311.382
311.297
311.149
310.856
310.641
310.353
303.575
303.576
303.675
303.728
303.811
303.86
303.923
303.896
303.931
303.934
303.958
303.939
303.912
303.876
303.811
303.804
303.766
303.634
303.577
303.473
352.735
353.789
355.311
356.159
357.063
358.016
358.704
358.968
359.402
359.464
359.56
359.289
358.809
358.4
357.83
356.859
355.578
354.488
353.421
352.073
345.736
346.632
347.954
348.671
349.459
350.258
350.842
351.128
351.479
351.523
351.604
351.392
350.991
350.587
350.115
349.295
348.191
347.21
346.344
345.099
338.724
339.479
340.599
341.245
341.797
342.555
342.984
343.203
343.545
343.578
343.676
343.476
343.18
342.74
342.416
341.758
340.795
339.941
339.187
338.146
331.725
332.291
333.246
333.735
334.111
334.857
335.165
335.27
335.618
335.663
335.762
335.556
335.334
334.946
334.698
334.197
333.357
332.686
332.047
331.222
324.704
325.145
325.827
326.206
326.52
327.141
327.35
327.419
327.724
327.706
327.775
327.691
327.464
327.192
326.963
326.584
325.914
325.418
324.922
324.295
317.679
317.973
318.469
318.663
318.975
319.374
319.556
319.616
319.821
319.79
319.855
319.786
319.641
319.491
319.277
319.013
318.509
318.175
317.775
317.379
310.649
310.791
311.096
311.169
311.422
311.625
311.749
311.777
311.95
311.87
311.907
311.887
311.819
311.723
311.533
311.457
311.124
310.913
310.651
310.433
303.584
303.62
303.701
303.755
303.839
303.901
303.952
303.94
304.008
303.954
303.987
303.988
303.971
303.925
303.864
303.842
303.73
303.656
303.549
303.484
353.229
354.323
355.717
356.676
357.906
358.727
359.307
359.627
359.878
360.053
359.99
359.902
359.38
358.922
358.336
357.272
356.332
355.017
353.683
352.566
346.177
347.069
348.286
349.124
350.2
350.902
351.407
351.711
351.903
352.03
352.04
351.876
351.466
351.088
350.564
349.609
348.795
347.631
346.489
345.598
339.109
339.838
340.874
341.596
342.482
343.028
343.51
343.778
343.899
343.967
344.056
343.864
343.56
343.245
342.77
341.962
341.318
340.286
339.335
338.581
332.008
332.58
333.49
334.024
334.778
335.171
335.572
335.807
335.877
335.923
336.028
335.883
335.637
335.399
334.979
334.332
333.804
332.989
332.157
331.567
324.917
325.368
326.096
326.444
327.087
327.362
327.665
327.884
327.869
327.921
328.053
327.932
327.696
327.542
327.219
326.705
326.277
325.689
325.019
324.536
317.844
318.141
318.681
318.857
319.336
319.562
319.727
319.949
319.9
319.959
320.03
319.979
319.765
319.673
319.477
319.074
318.753
318.36
317.883
317.528
310.717
310.894
311.213
311.319
311.61
311.762
311.842
311.988
311.937
312.002
312.043
312.021
311.87
311.83
311.74
311.461
311.258
311.063
310.779
310.522
303.611
303.655
303.752
303.784
303.909
303.941
303.959
304.017
303.998
304.023
304.049
304.015
303.989
303.968
303.953
303.834
303.772
303.707
303.605
303.531
353.66
354.801
356.003
357.198
358.392
359.117
359.731
360.134
360.433
360.534
360.601
360.28
359.839
359.28
358.759
357.579
356.757
355.498
354.081
352.863
346.544
347.494
348.473
349.556
350.628
351.249
351.798
352.093
352.368
352.463
352.476
352.269
351.843
351.352
350.935
349.888
349.19
348.088
346.87
345.824
339.406
340.185
340.972
341.946
342.823
343.337
343.841
344.053
344.331
344.376
344.399
344.247
343.884
343.421
343.117
342.229
341.582
340.701
339.68
338.807
332.234
332.865
333.483
334.286
335.035
335.451
335.89
336.045
336.295
336.29
336.308
336.185
335.91
335.543
335.314
334.535
334.035
333.312
332.47
331.771
325.079
325.548
326.02
326.644
327.206
327.554
327.921
328.03
328.23
328.234
328.259
328.135
327.943
327.686
327.483
326.863
326.492
325.94
325.257
324.708
317.911
318.26
318.594
319.038
319.453
319.637
319.947
320.046
320.178
320.16
320.239
320.082
319.949
319.773
319.633
319.168
318.903
318.568
318.083
317.661
310.754
310.951
311.166
311.447
311.694
311.795
311.985
312.062
312.103
312.109
312.191
312.039
311.973
311.884
311.768
311.487
311.369
311.152
310.867
310.597
303.608
303.673
303.759
303.841
303.921
303.957
304.03
304.035
304.046
304.058
304.088
304.035
304.017
303.996
303.937
303.83
303.806
303.748
303.635
303.554
353.827
355.109
356.183
357.517
358.797
359.414
360.092
360.363
360.606
360.658
360.995
360.731
360.126
359.574
359.133
357.997
357.066
355.686
354.445
353.186
346.67
347.818
348.67
349.845
350.962
351.498
352.077
352.303
352.556
352.545
352.898
352.644
352.082
351.614
351.257
350.294
349.435
348.26
347.209
346.146
339.504
340.469
341.139
342.145
343.109
343.619
344.059
344.226
344.534
344.435
344.726
344.517
344.115
343.676
343.36
342.592
341.772
340.833
339.957
339.097
332.322
333.084
333.591
334.456
335.268
335.709
336.008
336.192
336.517
336.354
336.6
336.397
336.128
335.792
335.483
334.844
334.165
333.413
332.753
331.995
325.134
325.745
326.09
326.787
327.425
327.775
328.006
328.142
328.419
328.278
328.478
328.315
328.114
327.823
327.59
327.07
326.542
325.976
325.516
324.913
317.965
318.356
318.642
319.13
319.614
319.864
320.035
320.092
320.305
320.167
320.334
320.204
320.118
319.86
319.695
319.332
318.961
318.554
318.229
317.792
310.803
311.023
311.21
311.499
311.784
311.964
312.012
312.056
312.217
312.124
312.226
312.124
312.077
311.962
311.795
311.624
311.39
311.121
310.944
310.706
303.624
303.685
303.783
303.844
303.955
304.014
304.033
304.015
304.115
304.084
304.109
304.063
304.047
304.019
303.958
303.913
303.831
303.712
303.657
303.575
353.995
355.146
356.497
357.699
358.834
359.46
360.215
360.607
361.072
361.222
361.397
360.867
360.384
359.942
359.281
358.368
357.155
356.097
354.652
353.553
346.873
347.831
348.974
350.013
351.002
351.529
352.113
352.498
352.957
353.059
353.217
352.775
352.314
351.943
351.399
350.587
349.51
348.583
347.39
346.459
339.649
340.473
341.447
342.339
343.152
343.61
344.052
344.39
344.854
344.907
345.032
344.7
344.264
343.956
343.486
342.827
341.864
341.09
340.129
339.315
332.403
333.105
333.913
334.649
335.321
335.702
336.018
336.324
336.762
336.702
336.887
336.628
336.245
335.997
335.58
335.037
334.241
333.621
332.892
332.193
325.174
325.76
326.424
326.962
327.504
327.78
327.97
328.249
328.663
328.556
328.707
328.536
328.223
328.012
327.735
327.258
326.671
326.138
325.626
325.046
318.005
318.378
318.903
319.276
319.666
319.855
319.975
320.151
320.504
320.425
320.497
320.412
320.168
320.028
319.862
319.485
319.083
318.668
318.328
317.912
310.812
311.029
311.382
311.567
311.8
311.922
311.951
312.117
312.325
312.298
312.303
312.271
312.112
312.021
311.903
311.687
311.472
311.21
311.014
310.765
303.625
303.704
303.803
303.883
303.945
303.989
303.974
304.052
304.134
304.123
304.112
304.102
304.057
304.009
303.978
303.922
303.847
303.76
303.697
303.591
354.062
355.381
356.812
357.836
358.91
359.482
360.417
360.597
361.284
361.405
361.346
361.145
360.705
360.347
359.449
358.535
357.408
356.353
354.963
353.625
346.912
348.016
349.191
350.133
351.072
351.541
352.375
352.51
353.171
353.225
353.165
353.005
352.607
352.31
351.556
350.689
349.755
348.836
347.625
346.505
339.688
340.646
341.588
342.467
343.202
343.608
344.305
344.43
345.014
344.981
345.016
344.858
344.535
344.262
343.666
342.952
342.104
341.291
340.32
339.393
332.469
333.237
334.023
334.82
335.359
335.732
336.237
336.353
336.852
336.779
336.843
336.727
336.494
336.201
335.77
335.158
334.463
333.772
333
332.286
325.238
325.871
326.466
327.073
327.527
327.835
328.192
328.28
328.644
328.615
328.698
328.609
328.441
328.134
327.849
327.335
326.777
326.248
325.656
325.109
318.013
318.511
318.892
319.305
319.686
319.882
320.118
320.236
320.441
320.483
320.503
320.473
320.329
320.098
319.945
319.528
319.125
318.747
318.368
317.937
310.807
311.115
311.348
311.578
311.801
311.915
312.094
312.172
312.265
312.328
312.283
312.326
312.233
312.085
312.003
311.702
311.499
311.261
311.022
310.775
303.619
303.72
303.796
303.873
303.948
303.984
304.05
304.088
304.118
304.135
304.112
304.142
304.096
304.055
304.03
303.937
303.856
303.765
303.679
303.605
354.091
355.325
356.864
357.835
358.749
359.578
360.548
360.819
361.279
361.628
361.404
361.076
360.876
360.427
359.522
358.542
357.438
356.297
354.78
353.787
346.873
347.909
349.275
350.163
350.909
351.612
352.52
352.702
353.113
353.441
353.225
352.942
352.785
352.379
351.586
350.74
349.763
348.804
347.461
346.64
339.638
340.498
341.72
342.469
343.077
343.64
344.446
344.591
344.982
345.217
345.023
344.802
344.671
344.321
343.618
342.891
342.088
341.347
340.181
339.451
332.443
333.149
334.117
334.757
335.244
335.703
336.385
336.47
336.805
336.967
336.869
336.708
336.57
336.236
335.709
335.102
334.428
333.831
332.904
332.298
325.273
325.787
326.509
327.036
327.419
327.786
328.33
328.355
328.619
328.741
328.711
328.574
328.486
328.133
327.785
327.304
326.81
326.319
325.634
325.173
318.077
318.413
318.927
319.331
319.61
319.862
320.234
320.244
320.41
320.503
320.514
320.42
320.339
320.107
319.91
319.504
319.191
318.798
318.36
318.037
310.855
311.074
311.347
311.604
311.798
311.965
312.139
312.139
312.234
312.31
312.293
312.258
312.218
312.117
311.964
311.718
311.579
311.26
311.054
310.819
303.632
303.705
303.807
303.886
303.956
304.019
304.071
304.059
304.096
304.127
304.106
304.121
304.092
304.067
304.014
303.928
303.889
303.765
303.696
303.607
354.169
355.306
356.774
357.512
358.733
359.577
360.532
360.746
361.397
361.37
361.485
361.145
360.905
360.369
359.379
358.539
357.53
356.219
354.815
353.546
346.992
347.918
349.202
349.838
350.865
351.628
352.518
352.651
353.211
353.206
353.298
352.978
352.823
352.37
351.457
350.686
349.865
348.743
347.542
346.434
339.778
340.535
341.653
342.2
343.031
343.653
344.455
344.564
344.998
345.029
345.1
344.829
344.723
344.317
343.567
342.873
342.224
341.262
340.265
339.316
332.567
333.211
334.099
334.529
335.216
335.705
336.382
336.442
336.816
336.855
336.916
336.687
336.65
336.236
335.666
335.075
334.565
333.821
332.985
332.177
325.411
325.85
326.575
326.887
327.428
327.797
328.295
328.32
328.649
328.665
328.734
328.547
328.554
328.194
327.739
327.297
326.904
326.332
325.688
325.017
318.18
318.485
318.999
319.257
319.581
319.876
320.235
320.221
320.471
320.483
320.519
320.348
320.429
320.143
319.808
319.505
319.232
318.866
318.332
317.845
310.938
311.119
311.413
311.59
311.789
311.944
312.13
312.123
312.275
312.315
312.294
312.229
312.324
312.098
311.894
311.744
311.567
311.343
311
310.681
303.663
303.722
303.804
303.88
303.956
304.014
304.046
304.072
304.115
304.127
304.122
304.083
304.146
304.057
303.968
303.956
303.876
303.797
303.693
303.56
)
;

boundaryField
{
    hotSide
    {
        type            fixedGradient;
        gradient        nonuniform List<scalar> 
400
(
439.359
452.501
465.245
477.533
489.311
500.522
511.114
521.035
530.237
538.673
546.299
553.078
558.973
563.952
567.99
571.062
573.153
574.25
574.347
573.44
450.902
464.428
477.547
490.201
502.331
513.881
524.797
535.026
544.516
553.221
561.096
568.1
574.197
579.354
583.542
586.74
588.929
590.096
590.235
589.341
461.254
475.128
488.588
501.573
514.025
525.885
537.096
547.605
557.36
566.311
574.414
581.625
587.908
593.228
597.558
600.873
603.154
604.389
604.569
603.692
470.352
484.537
498.302
511.583
524.322
536.458
547.935
558.695
568.687
577.86
586.168
593.567
600.018
605.488
609.946
613.368
615.735
617.033
617.254
616.396
478.147
492.603
506.632
520.172
533.162
545.54
557.248
568.23
578.43
587.799
596.287
603.852
610.453
616.055
620.628
624.148
626.593
627.95
628.21
627.371
484.597
499.281
513.535
527.294
540.496
553.08
564.986
576.155
586.534
596.069
604.713
612.42
619.151
624.868
629.542
633.146
635.661
637.072
637.369
636.551
489.671
504.54
518.976
532.913
546.288
559.039
571.106
582.43
592.954
602.627
611.399
619.225
626.062
631.876
636.635
640.312
642.887
644.345
644.676
643.879
493.347
508.356
522.93
537.002
550.509
563.389
575.579
587.021
597.659
607.439
616.311
624.229
631.152
637.042
641.869
645.605
648.23
649.728
650.09
649.313
495.611
510.715
525.381
539.545
553.143
566.11
578.386
589.91
600.627
610.482
619.425
627.409
634.393
640.34
645.218
648.999
651.663
653.193
653.582
652.824
496.458
511.609
526.323
540.535
554.179
567.194
579.516
591.086
601.846
611.744
620.728
628.752
635.774
641.756
646.666
650.478
653.169
654.724
655.134
654.395
495.888
511.04
525.756
539.971
553.62
566.64
578.969
590.547
601.317
611.224
620.22
628.256
635.29
641.286
646.211
650.037
652.744
654.316
654.742
654.02
493.911
509.017
523.689
537.863
551.474
564.458
576.754
588.302
599.046
608.931
617.907
625.927
632.95
638.938
643.859
647.685
650.395
651.974
652.412
651.705
490.542
505.556
520.139
534.227
547.757
560.664
572.888
584.369
595.052
604.881
613.808
621.785
628.772
634.73
639.628
643.438
646.14
647.718
648.162
647.468
485.804
500.679
515.129
529.088
542.494
555.284
567.397
578.775
589.361
599.103
607.95
615.857
622.783
628.69
633.547
637.327
640.009
641.576
642.021
641.339
479.727
494.419
508.69
522.478
535.719
548.351
560.316
571.554
582.01
591.632
600.372
608.182
615.023
620.858
625.656
629.39
632.04
633.589
634.029
633.356
472.345
486.81
500.861
514.436
527.472
539.909
551.688
562.751
573.045
582.517
591.119
598.807
605.541
611.284
616.005
619.679
622.285
623.808
624.238
623.573
463.704
477.9
491.69
505.011
517.804
530.008
541.565
552.421
562.52
571.812
580.251
587.792
594.396
600.027
604.655
608.255
610.807
612.295
612.712
612.052
453.854
467.741
481.23
494.26
506.772
518.708
530.011
540.626
550.501
559.586
567.835
575.205
581.658
587.159
591.679
595.192
597.679
599.127
599.524
598.87
442.854
456.395
469.546
482.249
494.446
506.08
517.096
527.441
537.063
545.914
553.949
561.127
567.41
572.764
577.16
580.574
582.988
584.387
584.763
584.112
430.771
443.93
456.709
469.051
480.901
492.202
502.902
512.948
522.291
530.884
538.684
545.649
551.743
556.934
561.193
564.498
566.83
568.176
568.526
567.879
)
;
    }
    coldSide
    {
        type            mixed;
        refValue        uniform 300;
        refGradient     uniform 0;
        valueFraction   uniform 0.991591;
        source          uniform 0;
        value           nonuniform List<scalar> 
400
(
300.024
300.025
300.025
300.026
300.026
300.027
300.027
300.028
300.028
300.029
300.029
300.03
300.03
300.03
300.03
300.03
300.03
300.03
300.031
300.031
300.025
300.025
300.025
300.026
300.027
300.027
300.028
300.029
300.029
300.029
300.03
300.03
300.03
300.031