/*--------------------------------*- C++ -*----------------------------------*\
| =========                 |                                                 |
| \\      /  F ield         | OpenFOAM: The Open Source CFD Toolbox           |
|  \\    /   O peration     | Version:  2212                                  |
|   \\  /    A nd           | Website:  www.openfoam.com                      |
|    \\/     M anipulation  |                                                 |
\*---------------------------------------------------------------------------*/
FoamFile
{
    version     2.0;
    format      ascii;
    arch        "LSB;label=32;scalar=64";
    class       volScalarField;
    location    "0";
    object      relativeErrorField;
}
// * * * * * * * * * * * * * * * * * * * * * * * * * * * * * * * * * * * * * //

dimensions      [0 0 0 1 0 0 0];

internalField   nonuniform List<scalar> 
3200
(
0.00606214
0.00615646
0.00686108
0.00742136
0.00845722
0.00949609
0.0105191
0.0112443
0.0124108
0.0130861
0.0139494
0.0143411
0.0146063
0.0146714
0.0149884
0.0147893
0.0148978
0.0150898
0.0154216
0.0154373
0.00506241
0.00531161
0.00562929
0.00627437
0.00698243
0.00785791
0.00873513
0.00978654
0.0105391
0.0113148
0.011697
0.0120218
0.0123241
0.0122705
0.0126681
0.0126152
0.0127588
0.0128247
0.0132108
0.0130605
0.0041087
0.00441504
0.00482768
0.0052568
0.00582036
0.00637951
0.00720467
0.00806947
0.0088363
0.00932236
0.00985729
0.0101549
0.0105301
0.0104816
0.0105047
0.010798
0.0107381
0.0106051
0.0109931
0.0109537
0.00318336
0.00333647
0.00372399
0.00418303
0.00457977
0.00513343
0.00601087
0.00638784
0.00706752
0.00740651
0.00785404
0.00821088
0.00820508
0.00847939
0.00870943
0.00866177
0.00856268
0.00880267
0.00896411
0.00898671
0.00259487
0.00253129
0.00316351
0.00291331
0.00357771
0.00399856
0.00448144
0.0049604
0.00533026
0.0058198
0.00597625
0.00635491
0.00645693
0.00657744
0.00640033
0.00659283
0.00662447
0.00701778
0.00695363
0.00720034
0.00182547
0.00173675
0.00208661
0.00219228
0.00240194
0.00259663
0.00317447
0.0037384
0.0039674
0.00430075
0.00451733
0.00462128
0.00443864
0.00451662
0.00470147
0.00461234
0.0047319
0.00460111
0.00507531
0.00509266
0.00106802
0.00117439
0.00141446
0.00129007
0.00158848
0.00174125
0.0018293
0.00227718
0.00240774
0.00244714
0.00243291
0.0027811
0.00260788
0.0027805
0.0029749
0.00291104
0.00271639
0.00324716
0.00288158
0.0028779
0.000377241
0.00031437
0.000421515
0.000544034
0.000624941
0.000665437
0.00064455
0.000906515
0.000680121
0.00109517
0.000869535
0.000991484
0.000808848
0.000846493
0.000943544
0.00107535
0.000987809
0.000964637
0.0010247
0.000928931
0.00398837
0.00413956
0.00461524
0.00548048
0.00601801
0.007205
0.00818537
0.0091098
0.0101133
0.0108334
0.0113643
0.0120328
0.012417
0.0124802
0.0123532
0.0125821
0.0126502
0.0128956
0.0131306
0.0134922
0.00354949
0.00353214
0.00413715
0.00439218
0.00524794
0.00592279
0.00690202
0.00776443
0.00853688
0.00924877
0.0097877
0.0103132
0.0104171
0.0106275
0.0108016
0.0108043
0.0110143
0.0111718
0.0115258
0.0113551
0.00254826
0.00303909
0.00306911
0.00370355
0.00429306
0.00499622
0.00557339
0.00650261
0.00697142
0.00762447
0.00801098
0.00874978
0.00876822
0.00893437
0.00886928
0.00900347
0.00901728
0.00935102
0.00976856
0.00951317
0.00210452
0.00228295
0.00266554
0.00275861
0.00336675
0.00393244
0.00462113
0.00508145
0.00568578
0.00620694
0.00682013
0.00666003
0.00693004
0.00725968
0.00736173
0.0072384
0.00747685
0.00765511
0.00775487
0.00795794
0.00159346
0.0018638
0.00191638
0.00217197
0.00289532
0.00320158
0.00360578
0.0041143
0.00445398
0.00467776
0.00502113
0.00567463
0.00539592
0.0055683
0.0055418
0.00551786
0.00574861
0.00564005
0.00605542
0.00598294
0.0009748
0.00124805
0.0012401
0.00168016
0.0017627
0.00195056
0.00251449
0.00266153
0.0031675
0.00345173
0.00357674
0.00375788
0.00390878
0.00382951
0.00396838
0.00422921
0.00436573
0.00409541
0.00424354
0.00449223
0.000940108
0.000871324
0.000832515
0.00102137
0.00104339
0.00127841
0.00167201
0.00179249
0.00168125
0.00200765
0.00209049
0.00221559
0.00214653
0.00221332
0.0022996
0.00226552
0.00244219
0.00262023
0.0025572
0.00272534
0.000214371
0.000358146
0.000412129
0.00027701
0.000309948
0.000226307
0.000663432
0.000489652
0.000665679
0.000721541
0.000668941
0.00070802
0.000880914
0.000918848
0.000745214
0.000817647
0.000765971
0.00102206
0.000812071
0.000816026
0.00139715
0.00161553
0.00183808
0.00262926
0.00328499
0.00431546
0.00491006
0.00612309
0.00708408
0.00768525
0.00826685
0.00889446
0.0091285
0.0093472
0.00960395
0.00975674
0.0100066
0.0102331
0.0105674
0.010736
0.00110717
0.00141874
0.0014866
0.00190832
0.00255375
0.00340758
0.0042731
0.00493027
0.00587956
0.00673717
0.00705526
0.00762171
0.0078143
0.00799308
0.00798782
0.00822299
0.00854596
0.00871378
0.00921109
0.00944066
0.00079487
0.00132588
0.00152188
0.00167674
0.002233
0.00267366
0.00349552
0.00422447
0.00478166
0.00541256
0.00600501
0.00624364
0.00649801
0.00668667
0.00697094
0.00706484
0.00703501
0.00707933
0.00725066
0.0075803
0.000887007
0.00081568
0.000938702
0.00137253
0.00164829
0.00212303
0.00285631
0.00321055
0.00362985
0.00443728
0.00474993
0.00498077
0.00538127
0.00539448
0.00554416
0.00559911
0.00589483
0.00607734
0.00639309
0.00624496
0.000427435
0.000539601
0.000605782
0.000866077
0.0010161
0.00189193
0.0022446
0.00240198
0.00288094
0.00325902
0.00364303
0.00396323
0.00428651
0.00424295
0.0041754
0.00420305
0.00458837
0.00458065
0.00460925
0.00495906
0.000384216
0.000365448
0.000626491
0.00035985
0.000998876
0.00122384
0.00135437
0.00178439
0.00220523
0.00224669
0.00261921
0.00267364
0.00284669
0.00302485
0.00332936
0.0030455
0.00323603
0.00334316
0.00330636
0.00360602
0.000255656
0.000382501
0.000197304
0.000459635
0.000481194
0.000861891
0.000846201
0.00109106
0.00140607
0.00151967
0.00161907
0.00176066
0.00186261
0.0017934
0.0017999
0.00194996
0.00198284
0.00201574
0.00210015
0.00212167
2.06655e-05
1.97257e-05
6.60777e-05
2.39932e-05
0.000154333
0.000147649
2.19062e-05
0.000574351
0.00059488
0.000584696
0.000592541
0.000691304
0.000721974
0.000537538
0.000782578
0.000752048
0.000743299
0.00070461
0.000512897
0.000884991
0.00137148
0.00133632
0.000851174
0.000459279
0.000377849
0.00108536
0.00194686
0.00272734
0.00375005
0.00439553
0.00493416
0.00549218
0.00591816
0.00614841
0.00615125
0.00654757
0.00694441
0.00729079
0.00791503
0.00801242
0.00110342
0.00122001
0.000907724
0.000575402
0.000289681
0.000809282
0.00148197
0.00210895
0.00316116
0.00355072
0.00411017
0.00457657
0.00485654
0.00525584
0.00529946
0.00569906
0.00589707
0.00624856
0.00646849
0.00700651
0.00118613
0.000975706
0.000785967
0.000416142
0.000199292
0.000702197
0.000933012
0.00201178
0.0024736
0.00296957
0.00331202
0.00378363
0.00403143
0.00424013
0.00440853
0.00481649
0.00495458
0.00511986
0.00557671
0.00563012
0.00121225
0.000890361
0.00081128
0.000706413
0.000180949
0.000311511
0.000881003
0.00127457
0.00199451
0.00223629
0.00261058
0.00284449
0.00303544
0.00344574
0.00345947
0.00377937
0.00404815
0.00400853
0.0044672
0.00463071
0.000703959
0.000900032
0.000479415
0.000465395
9.26598e-05
0.000287086
0.000457166
0.00109647
0.00148793
0.00194085
0.00185096
0.00239214
0.00248881
0.00248259
0.00251825
0.00292208
0.00301818
0.00326044
0.00357924
0.00385254
0.000473766
0.000815227
0.000321603
0.000401753
0.000225806
0.000233467
0.000362542
0.000709909
0.000788058
0.00122772
0.00125466
0.00163974
0.00167563
0.0020167
0.00200591
0.00209312
0.00207134
0.00239391
0.00249322
0.00259611
0.000438327
0.000405335
0.000495287
0.00040379
0.000218375
3.98337e-05
0.000445097
0.000313464
0.00056216
0.000777532
0.000901331
0.00100706
0.000885507
0.00108881
0.00123723
0.00136293
0.00129123
0.00125341
0.00158456
0.00156829
1.53089e-05
6.58268e-05
0.000191723
9.34816e-05
0.000229773
1.31161e-05
0.000207863
8.15843e-05
0.000145694
0.000238939
0.000189041
0.000406528
0.000310594
0.000267036
0.000582855
0.000344561
0.000443333
0.000648159
0.000425445
0.000548798
0.00401058
0.00395163
0.00358431
0.00331499
0.00284527
0.00218838
0.00124628
0.000490165
0.000465211
0.00121878
0.00151309
0.00218092
0.00252361
0.00299364
0.00316068
0.00342623
0.00378028
0.00445118
0.00486368
0.00548889
0.0033743
0.00348281
0.00326048
0.00315479
0.0025726
0.00205772
0.00105757
0.000551627
3.98594e-05
0.000766893
0.00139356
0.00167949
0.00195381
0.00231182
0.0027282
0.00308847
0.00331484
0.00368644
0.00417244
0.00466091
0.00307991
0.00313061
0.00297831
0.00273142
0.00233298
0.00176914
0.00128261
0.000713284
7.73803e-05
0.000576025
0.000991867
0.0014995
0.00166694
0.00173883
0.00202695
0.00246292
0.0026862
0.00312239
0.00341357
0.00388267
0.00257416
0.00262789
0.00245757
0.00225427
0.00192432
0.00168941
0.00103676
0.000525039
0.000267071
0.00029608
0.000841655
0.000915333
0.00118531
0.00127596
0.00180836
0.00195692
0.00202877
0.00254639
0.00282459
0.0030274
0.00185906
0.00231548
0.00207136
0.00194593
0.00159424
0.0012272
0.00101437
0.000641669
0.000322634
0.000137091
0.000262584
0.000564242
0.000820403
0.001141
0.00114816
0.00138156
0.00171831
0.00180317
0.00206936
0.00241729
0.00151812
0.00154347
0.00154051
0.00134012
0.00125046
0.00114812
0.000744143
0.000453326
0.000165251
0.000130053
0.000345975
0.000414272
0.000528279
0.000581385
0.00083237
0.00102955
0.00113136
0.0012305
0.00144579
0.00168338
0.000869711
0.00100005
0.000985574
0.000933202
0.000856991
0.000615807
0.00041812
3.15657e-05
0.00010444
9.50242e-06
0.000288834
0.000172904
0.000140491
0.000241709
0.000390481
0.000628699
0.000798545
0.000794011
0.00098353
0.00117054
0.000341932
0.000385394
0.000380372
0.000353684
7.58389e-05
3.15982e-05
0.000213639
5.8433e-05
2.77046e-05
5.65293e-05
1.9798e-05
0.000197213
0.000163193
0.000366526
0.0003687
0.000177703
9.8486e-05
0.000327729
0.000328098
0.000412135
0.00629964
0.00639661
0.00648399
0.00614133
0.00552411
0.00507302
0.00428142
0.00337308
0.0028623
0.00205487
0.00143576
0.00105467
0.000603671
0.000132284
0.000195906
0.000687963
0.000865315
0.00175862
0.00238535
0.00317667
0.00537333
0.00573607
0.0055828
0.00549092
0.00500373
0.0044032
0.00398417
0.00324189
0.00271083
0.00188863
0.00151283
0.00101341
0.000435346
0.000473185
0.00011641
0.000542008
0.000688361
0.0013384
0.00191076
0.00246289
0.00466369
0.00487587
0.0047792
0.00469827
0.00440866
0.00380321
0.00357847
0.00310726
0.00232768
0.00171058
0.00121177
0.00117922
0.000625754
0.00042241
6.44066e-05
0.000185732
0.000478781
0.00116846
0.00155425
0.00225832
0.00388987
0.00417649
0.00415185
0.00378709
0.00387526
0.00331765
0.00278016
0.00245448
0.00207212
0.00150969
0.00125156
0.000933003
0.000764111
0.000537824
5.5744e-05
7.85178e-05
0.000519609
0.000731989
0.00110514
0.00150231
0.00329582
0.00326135
0.00324516
0.00337495
0.00305174
0.00256102
0.0024629
0.0018944
0.00181934
0.00143734
0.00125492
0.000580228
0.000676929
0.000193767
0.000157796
9.63732e-05
0.000240097
0.000577423
0.000914375
0.00101036
0.00209083
0.00223424
0.00219693
0.00211252
0.00236319
0.00180089
0.00184407
0.00158034
0.00103986
0.000903765
0.000910966
0.000616272
0.000481232
0.000232718
4.2222e-05
0.000215506
0.000216002
0.00015682
0.000677635
0.000861162
0.00150688
0.0015868
0.0017195
0.00147616
0.0013478
0.00107
0.00091109
0.000922406
0.000748747
0.000649479
0.000486981
0.000348213
0.000211412
0.000194032
3.55999e-05
0.000113435
8.32325e-05
0.000482701
0.000279791
0.000507215
0.000471992
0.000499635
0.000443213
0.00042487
0.000576576
0.000275031
0.000644831
0.000244748
0.000288077
0.000274368
6.76482e-05
0.000199662
4.01104e-05
3.98911e-05
0.000258182
2.11834e-05
0.000120266
2.28439e-05
6.20265e-05
7.85261e-05
0.00811854
0.00827579
0.00862171
0.00826862
0.0080708
0.00790096
0.00692504
0.00645145
0.00550754
0.00518188
0.00446159
0.00402362
0.00348971
0.00317046
0.00246712
0.00187197
0.00129359
0.000671882
2.86527e-05
0.000905592
0.00728726
0.00755451
0.00758471
0.00764738
0.00712897
0.00685145
0.00627546
0.00572205
0.00511631
0.00462813
0.00391805
0.00356139
0.00297778
0.00275355
0.00236199
0.00183447
0.00138889
0.000701434
0.000108308
0.000727144
0.00615321
0.00634312
0.00677565
0.00674218
0.00617302
0.00613788
0.00556273
0.0051205
0.00448166
0.00391562
0.00354938
0.00326344
0.00265402
0.00248086
0.00216368
0.00185899
0.00118465
0.000664565
0.00040603
0.000348095
0.00519956
0.0053629
0.00546817
0.00539735
0.00533375
0.00505211
0.00474227
0.0044695
0.00396206
0.0035337
0.0032318
0.00298016
0.00247361
0.00223258
0.00192262
0.00150898
0.000903549
0.000609873
0.000121398
0.000277959
0.00418562
0.00408358
0.00445699
0.00427523
0.00438455
0.00382448
0.00370755
0.00344696
0.00292978
0.00280689
0.00244756
0.00237761
0.00213225
0.00178451
0.00155137
0.00149651
0.000912229
0.000492878
0.000208354
0.000182466
0.00313205
0.0030377
0.00329366
0.00310526
0.00292591
0.00299937
0.00272759
0.00250436
0.00247328
0.00196828
0.0018676
0.00166678
0.00138623
0.0014373
0.000899811
0.000955784
0.000621229
0.00033559
3.25475e-05
0.000258017
0.00203403
0.00203987
0.00195934
0.0017119
0.0019037
0.00177925
0.00149133
0.00140019
0.00114136
0.0011963
0.00113374
0.00105139
0.000860671
0.000906005
0.000485745
0.000495829
0.000598677
0.000141103
8.75957e-05
1.01607e-05
0.000744692
0.000825032
0.000841138
0.000851064
0.000791898
0.000673799
0.000615207
0.000561386
0.000499069
0.000329003
0.000601209
0.000278956
0.000179324
0.000322151
0.000399527
0.000260652
0.000173172
0.000135372
1.02521e-05
0.000159212
0.0101069
0.0104165
0.0106328
0.0105888
0.0105138
0.0101272
0.00952926
0.00892048
0.00830024
0.00754686
0.00701054
0.00653645
0.00620981
0.00563567
0.00517805
0.0043428
0.00362723
0.0026618
0.00191529
0.000987183
0.00894568
0.00927729
0.00945796
0.00939798
0.00901099
0.0090745
0.00845474
0.00786906
0.00735614
0.00680554
0.00634485
0.00581884
0.00538217
0.00516296
0.00464739
0.00395804
0.00346713
0.00262813
0.0018458
0.00100689
0.00771169
0.00780711
0.00810606
0.00825835
0.00803202
0.00769639
0.00739048
0.00713016
0.00663945
0.0062303
0.00565248
0.00512764
0.00476925
0.00440813
0.00381721
0.00353766
0.00271109
0.00217665
0.00152137
0.000925378
0.00638006
0.00669808
0.00677256
0.00672593
0.00672911
0.00648421
0.00614764
0.00594242
0.00530405
0.00511704
0.00447328
0.00431833
0.00419056
0.00361186
0.00318234
0.002919
0.00251598
0.00182023
0.00128063
0.000818954
0.00528197
0.00536885
0.00536795
0.00541661
0.00534347
0.00491528
0.00499224
0.00471275
0.00441271
0.00411771
0.00392531
0.00355878
0.00311963
0.00303307
0.00276777
0.00253188
0.0018584
0.001531
0.00128605
0.000744539
0.00377065
0.00402767
0.00395145
0.00402819
0.0039097
0.00369199
0.00328201
0.00343192
0.00310836
0.00294339
0.00263759
0.00241479
0.0024013
0.00208665
0.00194062
0.00194235
0.00146964
0.00132955
0.000742376
0.000580863
0.00216495
0.0022713
0.00222231
0.00242231
0.00245744
0.00224255
0.00205655
0.00208085
0.00200434
0.00172185
0.00152106
0.00143094
0.00170749
0.00127278
0.00130391
0.000889467
0.000968771
0.000483336
0.00042239
7.60905e-05
0.000523766
0.000797152
0.000755616
0.000766288
0.000788963
0.000800741
0.000739064
0.000612985
0.000445548
0.000436594
0.000672473
0.000525408
0.00051381
0.000239673
0.00022724
0.000367589
0.000159647
0.000216886
0.000230361
1.6308e-05
0.0115108
0.011841
0.0122352
0.0125929
0.0125695
0.0120713
0.011787
0.0114805
0.0106026
0.0100463
0.00950465
0.00901529
0.00828246
0.00784435
0.00717312
0.00634827
0.00541658
0.00451208
0.00371378
0.0026987
0.0100449
0.0105499
0.0108334
0.0110845
0.0109544
0.010754
0.0103709
0.0100174
0.00939627
0.00906757
0.00853263
0.00774005
0.00736274
0.00688438
0.0063621
0.00584769
0.00501331
0.00409599
0.0032795
0.00255825
0.00880097
0.00917632
0.00920059
0.00932938
0.00954162
0.00912416
0.00906966
0.00842873
0.00830124
0.00780195
0.00749078
0.0070684
0.0066564
0.00609814
0.0055113
0.00497394
0.00433344
0.00347375
0.00283028
0.00200687
0.00710062
0.00739395
0.00773749
0.00786219
0.0078205
0.00794966
0.0076195
0.00736045
0.00689727
0.00644363
0.00612677
0.00561977
0.00541083
0.00514496
0.00460717
0.00416772
0.00369571
0.00341695
0.00236295
0.00207002
0.00588731
0.00592279
0.00618687
0.00609273
0.00619253
0.00593464
0.00587663
0.0057824
0.00527117
0.00529003
0.00502119
0.00471278
0.00423513
0.00403911
0.00376371
0.0034681
0.00298567
0.00246866
0.0019785
0.00182852
0.00410892
0.00413805
0.00449742
0.00432441
0.00437141
0.00457165
0.00427074
0.00402924
0.00396982
0.00411257
0.00374423
0.00331239
0.0028549
0.00293822
0.0025006
0.00231027
0.00212186
0.00177992
0.00150375
0.0010482
0.00248213
0.00243768
0.00254287
0.0026575
0.00257505
0.00274842
0.0027395
0.00254003
0.00234281
0.0024005
0.00214526
0.00211956
0.00196913
0.00174476
0.00169461
0.00146057
0.00131624
0.00112259
0.00100394
0.000528311
0.000762801
0.000983002
0.000866148
0.000936467
0.00100871
0.000946855
0.000787631
0.000890793
0.000825815
0.000538636
0.000775011
0.000798999
0.000661842
0.000401259
0.000464064
0.000446053
0.000356802
0.000383296
0.000192931
0.000262261
0.012513
0.0130353
0.0134024
0.0141326
0.0139134
0.0139969
0.0135343
0.0132356
0.0124894
0.0121905
0.0114111
0.0106821
0.0104041
0.00969554
0.00893407
0.00818695
0.007259
0.00609725
0.00497713
0.00397235
0.0111023
0.0114737
0.0120234
0.0123436
0.0125483
0.0123111
0.0120611
0.0115882
0.0111814
0.0106968
0.0102949
0.0097065
0.00922532
0.00846271
0.00796276
0.00709584
0.00628612
0.00547337
0.00444417
0.00354185
0.00947067
0.0100517
0.0103752
0.0103963
0.0105451
0.010548
0.0105315
0.0102307
0.00974986
0.00927539
0.00890237
0.00835884
0.00802876
0.00771877
0.00691056
0.00619961
0.00561888
0.00494192
0.00397536
0.00292565
0.00785863
0.00832608
0.00866588
0.0089252
0.00882554
0.00868101
0.00862349
0.00831716
0.00835006
0.00793572
0.0075164
0.00707634
0.00666785
0.00629006
0.00607019
0.00525637
0.00465494
0.00402529
0.00321185
0.00248136
0.00614848
0.00655306
0.00682035
0.00683103
0.00713952
0.00707724
0.00683776
0.00668737
0.00629301
0.00602374
0.00595421
0.00569954
0.00541805
0.0049502
0.00470874
0.00424101
0.00364349
0.00302251
0.00257056
0.00212333
0.00474658
0.00487188
0.00516648
0.00538599
0.00501267
0.00501303
0.00501551
0.00487685
0.00458586
0.00438467
0.00420982
0.00409913
0.00381727
0.00356702
0.00334547
0.00294767
0.00260154
0.00238301
0.00212211
0.00154824
0.00274598
0.00307013
0.00302246
0.00331479
0.00323168
0.00290418
0.0029448
0.00270339
0.00289256
0.00260117
0.00271237
0.00240087
0.00228707
0.00213964
0.0020536
0.00183483
0.00165415
0.00146936
0.00107305
0.000925586
0.000819187
0.00114009
0.00104671
0.00111521
0.00100958
0.000942528
0.000947887
0.00102327
0.000955745
0.000879803
0.000742641
0.000858572
0.000693071
0.000631224
0.000822982
0.000368682
0.000587831
0.000410982
0.00019427
0.000446229
0.0134625
0.0140474
0.0146896
0.0151431
0.0152138
0.015286
0.015104
0.0146558
0.0142697
0.0138677
0.013251
0.0123739
0.0119492
0.0114124
0.0105145
0.00948473
0.00847103
0.00731046
0.0058149
0.00479223
0.0118339
0.0125338
0.0127504
0.0132105
0.0134656
0.0135591
0.0130326
0.0129382
0.01246
0.0120767
0.0117945
0.0111854
0.0105798
0.00971114
0.00936007
0.00843469
0.00756051
0.00647756
0.00524339
0.0041387
0.0100771
0.010419
0.0113355
0.0114033
0.0114631
0.0115669
0.0111826
0.0112032
0.0108526
0.0105732
0.0102007
0.0096411
0.00915818
0.00850752
0.00808119
0.00734872
0.00661612
0.00577079
0.00454889
0.00379108
0.00840829
0.0087802
0.00943407
0.00948058
0.00975515
0.00971955
0.0097268
0.00959894
0.00906029
0.0088368
0.00849467
0.00826194
0.00748497
0.0073956
0.00671855
0.00591016
0.00534225
0.00484031
0.00383077
0.00327583
0.00667718
0.00717253
0.0072536
0.00774431
0.00769423
0.00760151
0.00737429
0.00743598
0.00737632
0.0070026
0.00668005
0.00648509
0.00605036
0.00551881
0.00523987
0.00491743
0.00438703
0.0037308
0.00329494
0.00261603
0.0047222
0.00482723
0.00539504
0.00568488
0.00543223
0.00566918
0.00549915
0.00509117
0.00506227
0.00519423
0.00474843
0.0045809
0.00455463
0.00425918
0.00373087
0.00357785
0.003144
0.00279517
0.00217357
0.00200315
0.00300595
0.00330405
0.00322476
0.00330008
0.00336021
0.00319726
0.00336318
0.00332045
0.00306777
0.00304056
0.00278003
0.00281179
0.00276172
0.00262879
0.00229829
0.00209428
0.00184687
0.00175737
0.00148007
0.00115547
0.00094445
0.0010511
0.000903989
0.00119183
0.00108421
0.00126458
0.00105614
0.000937366
0.00101765
0.00108031
0.000797118
0.000980438
0.00104845
0.000858408
0.00103619
0.000781521
0.000568974
0.000449522
0.000474205
0.000300968
0.0137153
0.0148956
0.0152501
0.0159452
0.0162463
0.0160217
0.016094
0.0156856
0.0155323
0.015133
0.0143335
0.0136886
0.0132638
0.0125235
0.0112431
0.0107446
0.00928482
0.0081676
0.00673667
0.00551114
0.0118261
0.0126255
0.0135888
0.0138033
0.0144683
0.0143675
0.0142679
0.0136407
0.0137632
0.0132648
0.0127448
0.0122055
0.0116994
0.01095
0.010359
0.00929789
0.00820523
0.00705235
0.006127
0.0047666
0.0102847
0.0111762
0.0117611
0.0119414
0.0123274
0.0123562
0.0121879
0.0119551
0.0118883
0.0115385
0.0110507
0.0105895
0.0101605
0.00944835
0.00862176
0.00814696
0.00705307
0.00626216
0.00510722
0.00415113
0.00850241
0.00923962
0.00989232
0.00990428
0.0101747
0.0100203
0.0102591
0.010035
0.00965013
0.0095717
0.00929578
0.00864307
0.00838064
0.00809076
0.00720766
0.00665821
0.0059603
0.00527316
0.00439491
0.00360766
0.0070098
0.00718138
0.0074952
0.00788864
0.00787134
0.00806621
0.00819067
0.00773795
0.00775742
0.00755258
0.00723911
0.00698694
0.00668714
0.00636771
0.00594281
0.00551643
0.00493802
0.00398855
0.00347806
0.00268175
0.0046466
0.00522989
0.00551046
0.00582917
0.0058193
0.0060532
0.00592786
0.00573138
0.00557178
0.00548265
0.00528245
0.00522024
0.00469551
0.00456464
0.00416448
0.00363017
0.00346136
0.00296045
0.00238333
0.002325
0.00297109
0.00334541
0.00348668
0.00357612
0.00342531
0.00360414
0.00361519
0.00333963
0.00352697
0.00336347
0.00351839
0.0031519
0.00302433
0.00281421
0.00248721
0.0022484
0.00223088
0.00182598
0.00136751
0.00127441
0.000972719
0.00115478
0.00112472
0.00111141
0.00132689
0.00148188
0.0010873
0.00113501
0.00121465
0.00132122
0.00125813
0.00137823
0.000859514
0.000971171
0.000842448
0.00084532
0.000842999
0.00058226
0.000441295
0.000369743
0.013987
0.0145694
0.0156706
0.0163219
0.0166603
0.0167876
0.0167679
0.0164846
0.0163917
0.0157484
0.0153332
0.0147752
0.0139312
0.0130126
0.0123587
0.0110515
0.00980791
0.0083685
0.00696672
0.0058003
0.0120868
0.0127574
0.0136187
0.0142549
0.0144231
0.0148316
0.0149811
0.014636
0.0146574
0.0140724
0.0137628
0.0130295
0.0123461
0.011618
0.0107685
0.00972043
0.00863575
0.00755366
0.00612196
0.00497682
0.0105756
0.0108668
0.0118552
0.0122184
0.0124039
0.0126163
0.0126428
0.0124096
0.0123654
0.0121308
0.011656
0.0112288
0.0108163
0.0100932
0.00927187
0.00832623
0.00741903
0.0063466
0.00530009
0.0045356
0.00873476
0.00910644
0.00987922
0.0100531
0.0104501
0.0104742
0.0103561
0.0101842
0.0102387
0.0101239
0.00959688
0.00940029
0.00881134
0.00813204
0.00733823
0.00713856
0.00626911
0.00535822
0.00449659
0.00389688
0.00668198
0.00728903
0.0076334
0.0081505
0.00824767
0.00843877
0.00839241
0.00831547
0.00825206
0.00806587
0.00795485
0.00729345
0.00705494
0.00657181
0.00632884
0.0056587
0.00501457
0.00441618
0.00355287
0.00304131
0.00489216
0.00540912
0.00552038
0.00601204
0.00587064
0.00600832
0.00601894
0.00592894
0.00579587
0.00573694
0.00538504
0.00532533
0.00504155
0.00480085
0.00433926
0.00417464
0.0037227
0.00316519
0.00268035
0.00224006
0.00315029
0.00321253
0.00332591
0.00353309
0.00360013
0.00355735
0.00370568
0.00360677
0.00343598
0.00362768
0.00338698
0.00324064
0.00302931
0.00298625
0.00276022
0.00235453
0.0021831
0.00174737
0.00163689
0.00140652
0.000815031
0.000895517
0.00115309
0.00107478
0.00147092
0.0014404
0.00142505
0.00138573
0.00110087
0.00112258
0.00129004
0.00101746
0.00114686
0.0011463
0.000836718
0.00076545
0.000872858
0.000579939
0.000356586
0.000499564
0.0135856
0.0143573
0.0153425
0.0161719
0.0167022
0.0170297
0.0171912
0.0169185
0.0167508
0.0163815
0.015927
0.0150642
0.0144563
0.0134268
0.0125515
0.0113028
0.00996043
0.00853279
0.00668696
0.00551805
0.0119158
0.0126051
0.0136462
0.0142357
0.0146386
0.0147759
0.0151612
0.014907
0.0147181
0.0142936
0.013846
0.013405
0.0125831
0.0117989
0.0109463
0.00987128
0.00870923
0.00728293
0.00601122
0.004801
0.0100991
0.0105656
0.0116966
0.011953
0.0126094
0.0127819
0.0130093
0.0128496
0.0125694
0.012218
0.0121125
0.0117453
0.0109219
0.010018
0.00956697
0.00849608
0.00769534
0.0066882
0.00527144
0.00431123
0.00835058
0.00891881
0.00945351
0.0100993
0.0105821
0.0104233
0.0109195
0.0107809
0.0105162
0.010203
0.0100301
0.00949247
0.00880379
0.00840064
0.00792372
0.00706183
0.0061189
0.00540413
0.00436319
0.00348912
0.00653154
0.00711172
0.00757703
0.00809284
0.00832414
0.00832008
0.00837881
0.0084183
0.00824443
0.00810098
0.0079226
0.00784863
0.00716699
0.00651022
0.00621916
0.00554351
0.00486383
0.00424816
0.00349767
0.00289315
0.00468873
0.00510782
0.00558624
0.00566458
0.00616364
0.00625478
0.00620001
0.00618642
0.00583941
0.00588521
0.00582788
0.00570419
0.00545491
0.00488122
0.00448841
0.00404978
0.00372115
0.00337704
0.00256953
0.00200965
0.00290468
0.00332795
0.00322688
0.00346846
0.00361668
0.00390973
0.00356233
0.00365212
0.00368616
0.00365597
0.003377
0.00326106
0.0031918
0.0027702
0.00255833
0.00257645
0.00228309
0.00183906
0.00145774
0.00124497
0.000847836
0.0011518
0.00119047
0.000896987
0.00125212
0.00125179
0.00102578
0.00134051
0.00124116
0.0013134
0.00134622
0.00108656
0.000971161
0.000710948
0.000863389
0.000991849
0.000616661
0.000717643
0.000402463
0.000632387
0.0126793
0.0137197
0.0147954
0.0155044
0.0161951
0.0164556
0.0168119
0.0169742
0.0165644
0.0162967
0.0155842
0.015173
0.0141705
0.0132764
0.0122977
0.0110504
0.00979734
0.00816134
0.00634044
0.00497298
0.0111218
0.0120337
0.0130262
0.0135587
0.0142715
0.0145444
0.0147146
0.0147367
0.0146202
0.0144434
0.0138195
0.0133226
0.0126149
0.0115858
0.010813
0.00966373
0.00828353
0.00717001
0.00567222
0.00424791
0.0094809
0.0103131
0.0109669
0.011771
0.0123602
0.0123657
0.0130313
0.012681
0.0127145
0.0123841
0.0118258
0.0113182
0.0108381
0.0101074
0.0093185
0.00839173
0.00725393
0.00626022
0.00480108
0.00367469
0.00786228
0.00843477
0.00907107
0.00960072
0.0100885
0.0101126
0.0106511
0.0108246
0.0105086
0.010309
0.0100307
0.00942477
0.00895807
0.00845974
0.00769709
0.00701349
0.00601196
0.00491144
0.00401892
0.00328987
0.0059477
0.00648759
0.00722494
0.00764387
0.00809228
0.00801908
0.00821072
0.008379
0.00798354
0.00808842
0.00790692
0.00736191
0.00707444
0.00656582
0.00607801
0.00544842
0.00452026
0.00413178
0.00319304
0.00240754
0.00440718
0.00516712
0.0049801
0.005595
0.00578212
0.00610956
0.00636144
0.00633368
0.00595545
0.00595935
0.00561971
0.00540631
0.00524109
0.00480123
0.00439195
0.00410563
0.00348172
0.00270206
0.00204037
0.00186714
0.00272642
0.00321216
0.00317562
0.00339438
0.00333583
0.003922
0.00351012
0.00391406
0.00373933
0.00364519
0.00326623
0.0032763
0.00330136
0.00287429
0.00283231
0.00238902
0.00206858
0.00199479
0.00141737
0.000900773
0.000895208
0.00092535
0.00104142
0.00118631
0.00125421
0.00133165
0.00133523
0.00112949
0.00131842
0.0012851
0.00125175
0.00128695
0.00109496
0.000932748
0.00100889
0.000787177
0.000694183
0.000572043
0.000372417
0.000251049
0.0112949
0.0125933
0.0138881
0.0147935
0.0153147
0.0159011
0.0160655
0.0162047
0.0159585
0.0157697
0.0153112
0.0146169
0.0139095
0.0127229
0.0117271
0.0105715
0.00883958
0.00730133
0.00547052
0.00401158
0.00987592
0.0110361
0.0120713
0.0128787
0.0134872
0.0140415
0.0142261
0.0143147
0.0143133
0.0138956
0.0133796
0.0130094
0.0123673
0.0112442
0.0102813
0.00894937
0.0077829
0.00628079
0.00471997
0.00359383
0.00875333
0.00947119
0.0103485
0.0111303
0.0115928
0.0119937
0.0123427
0.0122148
0.0122284
0.0119135
0.0116136
0.0111016
0.0104649
0.00981034
0.00866176
0.0079239
0.00686434
0.0056587
0.00419905
0.00308528
0.00709565
0.00779457
0.00857334
0.00929935
0.00973145
0.0100566
0.0103752
0.0100673
0.0101369
0.00989153
0.00964105
0.00901372
0.00869785
0.00796889
0.00740255
0.00666846
0.00558804
0.00464702
0.00354198
0.00254927
0.00567807
0.00612514
0.00657206
0.00749839
0.00770799
0.00805726
0.00787783
0.0080383
0.00803635
0.00778649
0.00775536
0.00729967
0.00697464
0.00638016
0.00568175
0.00529016
0.00439534
0.00366018
0.00276829
0.00197977
0.00404421
0.00451367
0.00470711
0.00532843
0.00530227
0.00565999
0.00566672
0.00587687
0.00562999
0.00571569
0.00567383
0.005117
0.00498078
0.00462652
0.00449244
0.00369315
0.00318675
0.00258853
0.00184388
0.00142701
0.00237743
0.00240465
0.0028029
0.00300073
0.00343181
0.00359051
0.00358131
0.00350599
0.00385597
0.00361997
0.00345548
0.00331909
0.003144
0.00278029
0.00254299
0.00235449
0.00202068
0.001728
0.00113873
0.000841765
0.000647109
0.000704989
0.000943854
0.00111753
0.00110308
0.00113255
0.00120065
0.00129985
0.00105692
0.00141422
0.00123727
0.00116759
0.00118675
0.00112463
0.00113594
0.000780108
0.000861532
0.000432443
0.000458439
0.000200102
0.0100831
0.0108981
0.0122446
0.0134484
0.0142227
0.0146614
0.0153751
0.0152303
0.0150664
0.0150281
0.014349
0.0134763
0.0128739
0.0118774
0.0106229
0.00952507
0.00770595
0.00596302
0.00402758
0.00279611
0.00852264
0.00967643
0.0107747
0.0117501
0.0123886
0.0130682
0.0134225
0.0134316
0.0133047
0.0132266
0.0127625
0.0120777
0.0114441
0.0104834
0.00933698
0.00830513
0.00693876
0.00533823
0.00387233
0.00231463
0.00726867
0.00804488
0.00909353
0.00999008
0.0105797
0.011331
0.0113828
0.0115683
0.0114348
0.0111679
0.0110698
0.0102809
0.00967015
0.00899002
0.00798745
0.00694184
0.00579049
0.00451975
0.00291077
0.00195717
0.00595253
0.00661848
0.00743177
0.00838197
0.00884731
0.00925004
0.00960111
0.00962181
0.00933863
0.0093816
0.00906639
0.00873037
0.00822459
0.00752426
0.0069455
0.00583911
0.00485624
0.00380638
0.00281332
0.00159437
0.00478865
0.00536681
0.00601551
0.00669348
0.00687389
0.0073357
0.00739542
0.00759433
0.00758929
0.00743465
0.00721256
0.0068186
0.00637698
0.00584869
0.00555192
0.00454213
0.00391783
0.00299765
0.00209657
0.00121606
0.00348227
0.00370111
0.00432542
0.00484193
0.00491211
0.00532496
0.00544139