/*--------------------------------*- C++ -*----------------------------------*\
| =========                 |                                                 |
| \\      /  F ield         | OpenFOAM: The Open Source CFD Toolbox           |
|  \\    /   O peration     | Version:  2212                                  |
|   \\  /    A nd           | Website:  www.openfoam.com                      |
|    \\/     M anipulation  |                                                 |
\*---------------------------------------------------------------------------*/
FoamFile
{
    version     2.0;
    format      ascii;
    arch        "LSB;label=32;scalar=64";
    class       volScalarField;
    location    "./ITHACAoutput/true/1.7";
    object      error;
}
// * * * * * * * * * * * * * * * * * * * * * * * * * * * * * * * * * * * * * //

dimensions      [0 0 0 1 0 0 0];

internalField   nonuniform List<scalar> 
3200
(
1.47475
-0.103849
-0.403201
2.07088
3.64687
3.45537
4.88899
6.70677
7.58586
6.15835
7.84012
8.74517
6.77727
3.42452
6.17402
2.26944
4.73016
2.21686
0.530318
2.27046
0.0663477
1.58544
0.754612
3.44657
1.30661
2.5009
4.71611
5.13973
4.98214
2.84535
3.53723
4.14186
6.40079
0.920352
1.70908
1.39253
2.03684
4.55216
1.63438
3.24997
0.48442
2.17283
0.195063
0.791467
0.69287
4.07675
2.34968
2.24471
3.47744
3.50763
4.08748
4.66208
5.60356
3.70354
3.59277
0.173001
4.12808
2.47796
1.32963
3.95798
-1.16063
-1.67908
1.88618
4.69326
2.01986
2.14693
2.18294
2.63167
4.30372
4.73147
2.53118
1.88213
1.66611
5.02248
1.21883
0.84835
-0.559467
2.89407
1.2283
3.82239
-0.782769
-1.09511
1.54378
2.77606
2.38011
4.08664
1.40718
3.66291
3.86343
3.14451
2.89118
0.0331802
0.30987
0.246035
0.87607
1.55659
-0.742566
-0.745845
1.21256
0.392894
0.511697
0.59288
2.30313
-0.892273
1.1381
-0.134221
-0.883454
2.3222
0.0937478
1.87596
2.85369
4.11831
1.64926
2.7688
2.96192
-1.33551
-1.83086
2.32777
0.497895
0.318887
0.328136
0.996478
1.79367
2.68736
-0.11485
2.21832
0.0408557
0.794697
-0.432132
2.01752
2.25678
1.3818
0.391425
4.79624
3.0962
0.637058
-0.150802
1.36386
1.92969
-0.556852
1.5701
1.87046
-0.73377
0.917995
-1.15204
-1.07803
-0.594835
1.14471
0.0569547
3.07275
0.0354415
-0.801285
-1.05315
-0.289763
-1.65214
0.0688179
-0.998488
-0.519051
1.28908
-0.80898
-0.702357
0.380515
1.60974
0.949015
1.34592
1.80354
4.12462
5.23332
3.27566
4.96525
7.14805
3.65943
1.86813
4.5068
-0.16814
0.424053
-1.11724
-0.254162
-1.60122
3.38424
-0.814066
0.549179
1.34181
-1.2102
4.79821
-0.0341797
3.28824
0.405969
5.02721
-0.341396
0.115391
8.26438
0.14261
4.73787
0.375619
-0.27494
0.430208
2.39358
-0.275246
2.85368
0.284648
0.149007
2.65977
0.857214
0.84184
2.38425
2.14312
0.357071
4.9583
2.94404
2.46575
3.62169
5.64028
2.98118
0.199431
1.21836
0.847373
-1.5591
-2.21911
2.89102
-0.807224
1.72415
-1.56105
-2.38689
-0.413182
0.900895
4.53213
3.84636
1.32185
1.69734
-0.171937
3.23309
1.9247
3.2697
0.119599
4.15277
-2.84052
0.344867
0.415925
2.27624
-1.5759
-0.791143
0.42345
-1.3044
0.488975
-1.38278
1.45985
0.118782
4.41694
1.69767
5.93935
4.33064
3.61777
0.645344
0.718854
1.45284
0.50948
1.9753
0.0678926
-0.602984
0.526518
-2.01108
1.12751
3.91391
-1.831
1.61193
1.16896
2.10028
-1.11528
1.21911
1.59856
1.55845
1.18908
-0.197096
-0.759649
1.51065
0.728803
0.704503
-0.70714
1.00515
0.911548
-0.0119025
2.02248
-1.73872
-0.542181
1.27657
2.49466
1.88077
-1.94009
0.382693
0.573878
2.06067
2.34404
-0.416759
0.0264227
0.142617
0.136319
1.82441
0.859344
0.526522
-0.017545
1.63793
0.111252
1.46379
3.73323
-0.491413
-2.72592
0.699752
2.25117
0.991836
1.41448
-0.480918
0.121277
0.438292
-0.228281
0.33885
0.669751
0.305091
0.622969
-1.83864
1.26621
1.73255
-1.26104
0.548577
2.41021
0.789968
4.24316
3.48758
4.99382
4.81523
2.61228
2.98196
3.0998
2.6185
3.36501
1.7884
1.13126
0.544954
0.258633
1.69381
2.30831
-0.816445
-1.72111
1.64213
1.8864
3.87937
0.460077
2.95226
5.81262
5.06792
4.85214
3.74361
4.77398
2.5304
3.10013
2.52294
2.37556
0.284003
1.63196
-1.10532
-0.913931
0.129797
-2.27515
-2.2454
-0.686672
1.50561
1.15269
1.28818
-0.206713
1.44125
3.50988
4.81796
1.96211
2.87185
0.813514
2.47143
-0.989566
1.45571
0.938817
1.35349
-0.525596
0.642732
1.32972
-1.81002
0.224302
-0.968889
3.63699
3.50239
0.0379321
2.871
2.14055
4.45897
2.299
2.632
2.74675
4.72796
-0.323364
1.33388
-0.116217
0.163835
-0.697137
0.789367
1.15396
-0.124233
1.95236
2.89523
2.50605
2.75993
0.3406
1.03466
2.94195
2.77337
2.81576
3.65429
0.0951727
-0.482388
-0.337079
0.994832
-0.51692
-0.315367
-1.15285
-1.5487
-1.38772
-0.714632
-0.741233
-0.514678
-1.0827
1.49748
2.937
1.30144
2.13594
-0.885987
1.8804
3.02326
0.810942
1.50178
0.817266
0.0467753
-2.36863
1.09808
0.9416
0.687039
1.15508
-2.37998
-0.761581
0.0161131
-0.854577
-4.15758
1.79923
1.52744
-0.621875
-3.07243
1.47114
1.82917
-0.594384
0.492877
-0.35431
2.1297
-1.02901
3.12633
1.37491
-1.17043
0.959372
2.12718
0.316318
-0.887375
-1.15307
2.84659
0.801785
-1.21625
0.506568
1.90949
-0.911881
-1.76314
-0.0691517
1.0975
1.86881
-0.276433
-1.52205
-0.638579
0.268521
-3.6767
1.95561
0.431233
0.716694
1.89278
1.0266
2.06629
4.39198
2.26173
4.81138
2.44313
1.24103
2.12464
2.99662
1.72381
-0.895456
1.80841
1.96975
-1.69318
0.298351
1.12097
-2.33585
0.317571
-0.0265038
0.404882
2.49591
0.0449304
2.95867
0.128912
-0.0536467
1.9183
0.0967526
5.62662
0.451747
-0.314705
-0.438566
-3.10381
-0.152831
-4.04827
-2.14637
-0.442849
-0.550625
-2.03861
0.437421
2.82743
-0.0901027
-1.51616
2.80447
3.99824
0.377073
2.2461
2.36901
1.02902
1.76551
-0.271667
-0.641265
-0.738448
-1.13571
2.08487
-0.0968953
-0.657721
-2.80136
1.59343
0.439486
2.82591
0.199148
1.09945
1.58416
2.99922
0.773597
-1.88885
-0.213863
1.09536
0.690966
0.442968
0.517197
1.59197
1.23354
-1.06421
0.152273
2.01106
-2.29614
1.40101
3.62918
0.062215
-1.38921
1.0918
0.389884
2.23945
0.42337
0.727152
2.76804
1.63415
1.38338
-3.78581
-1.17207
1.47279
0.893787
2.30784
2.20852
2.37149
0.563378
0.56097
0.473981
-0.779297
-0.898648
1.17544
-0.54147
0.33225
-0.13493
0.255215
1.79408
1.02114
3.05139
-0.935761
-1.33544
-0.276653
0.0811519
-0.561185
0.595594
1.95869
1.85728
0.747
-0.746348
1.3537
0.96648
-1.17433
-0.964025
0.764231
1.9168
1.30437
-1.02887
1.36559
-2.48579
1.54167
0.00257946
0.828722
2.44537
-3.4743
-0.0668255
1.21234
1.09152
-3.71367
1.1298
0.118011
2.78996
0.779609
-3.07265
-1.52834
-1.06816
0.625889
0.0546013
-1.05966
-2.00502
-1.7131
2.70065
1.32757
-0.903458
0.635619
-0.754293
-1.71609
0.412047
-2.0022
-1.583
2.00133
2.24366
3.37339
2.40959
1.64157
2.83118
1.31141
0.302462
1.61494
-1.25861
-3.74729
-0.43718
1.08627
0.401941
-1.68803
-1.47573
-1.90962
-1.98246
-2.90695
-0.0551344
-1.36642
1.62053
1.12993
2.05944
-0.458413
3.62768
0.0924898
-1.37626
-0.837456
2.55239
-0.0624852
-0.0804479
0.910847
-1.12384
-0.207771
-2.47932
-2.37459
-3.29404
-1.36661
-2.27264
0.434603
-0.897216
-2.06902
1.78145
2.63275
1.86819
0.995256
0.815607
0.300909
-1.28641
3.06733
-3.69626
-1.89058
0.892362
-1.32117
-1.4837
-2.34643
0.331295
-2.61573
-3.44983
2.48761
0.809082
-0.23133
4.0061
-1.52871
-2.72227
0.295355
0.110737
0.271902
-0.62794
-0.0423997
1.03325
1.66383
-1.46766
0.0567993
-0.831503
0.481163
-3.39149
-3.24758
1.05024
-1.46054
1.23232
1.88113
2.64057
-0.297177
0.583111
2.86675
-0.569125
-0.972631
-0.21702
1.64742
-1.4609
-0.669217
-0.249811
-0.934822
-2.01512
-1.07503
-1.26294
-3.31299
-0.181236
0.768888
-2.58174
0.00644666
1.31477
-3.55279
1.36895
0.684333
0.489716
-3.01044
-1.10633
0.768156
-1.43986
-0.976449
-1.43702
0.73404
1.59896
-0.371665
-1.75277
0.874026
1.30479
-0.334914
-0.950546
2.66572
1.56409
2.26043
-0.603227
-1.14448
1.37393
0.667705
-0.18907
0.521476
2.70975
1.00512
0.679904
-1.21544
-2.74662
-1.25674
0.985093
-0.239218
2.43602
1.31783
-0.97536
0.227214
-0.931102
1.28383
1.65993
-1.99343
1.76109
1.03436
-0.265425
0.185074
0.0664486
-3.41209
2.38315
1.16473
-4.27686
-1.90895
-3.23484
-2.08706
-3.83484
1.22186
-2.70338
2.29499
-1.3086
1.3605
-0.65699
0.419219
2.52004
-1.87675
-2.0324
0.177569
-1.37555
-2.40629
-1.67333
-0.83333
-2.3069
2.31907
-2.68623
-0.946698
-0.474728
0.531604
-0.246971
-0.276652
-0.490175
0.571207
0.239767
-1.13048
0.042286
0.493944
-0.927021
0.405056
-0.549232
-2.30651
-0.581641
-1.82346
0.0713443
-1.8414
-2.49013
-0.781957
-0.372666
1.32929
-1.78737
-1.20302
2.70013
-0.417271
-0.955388
-1.44577
0.514526
-0.18296
0.639788
0.13967
1.14115
-1.81637
-0.709286
-2.97675
-3.86751
-3.27163
-1.64442
-1.79436
-0.797303
-0.278122
-0.249217
0.980495
0.892216
1.8206
1.28586
-0.600403
-2.18083
3.64013
-2.16799
1.91668
-0.640938
-0.889215
-4.20855
-0.0874693
-1.42678
-2.30204
1.53419
-0.402665
-1.1727
-0.932799
-1.66673
-1.87726
3.73949
0.720754
1.02736
1.24231
0.0319871
2.08417
-1.25373
0.634514
0.403593
-3.19608
-2.70278
-1.1834
0.875456
1.3892
-0.935464
0.218023
0.512921
-0.537895
1.53823
-2.62113
2.32272
0.459103
-0.531766
0.490402
-3.10407
1.14029
-1.62448
2.42401
2.35266
0.804491
0.861045
0.313072
-0.693271
-1.29699
1.38339
-0.565995
1.11839
-0.245269
0.210746
1.47011
-1.0963
3.17665
-1.84484
4.32355
-0.798806
3.22022
-1.36028
-0.516888
1.39469
-0.841552
-3.47364
-0.943048
-1.94114
1.95001
1.61277
2.82644
-0.791235
-2.95887
1.49502
0.0531269
-1.16603
-3.08986
1.87772
-0.275372
2.54147
-0.979518
1.40684
-0.788463
0.0749222
0.805061
-1.25228
0.982824
-6.3439
-2.74398
-3.92883
-1.93941
-1.35253
-2.65846
-0.207046
0.754534
0.764765
0.0287088
-2.28635
0.992408
-2.35493
-0.728794
-2.28101
-1.64101
-2.04227
-2.58001
-0.254483
-3.57595
0.327771
-1.45138
0.880974
-1.93294
-1.00331
0.527657
-0.298611
-0.350902
-0.796435
2.15083
-0.610345
1.20538
1.0567
0.815008
-2.11071
-3.39629
-1.12532
-2.98566
-3.99633
0.583732
1.39323
-3.66565
-0.674608
-1.09415
-3.56725
-0.688052
-1.19789
1.37273
0.169365
-0.10277
0.722945
1.11214
0.891755
-1.00686
-1.66722
-0.534294
-1.31803
-0.62739
-2.16565
0.0428836
-2.37734
-2.02809
0.826017
-3.0941
0.494194
0.643052
0.666137
-0.645481
0.820062
0.331496
1.41159
2.02046
0.174569
1.07337
-1.78824
0.284465
-2.40276
0.13473
0.0671569
0.286445
0.834008
-0.784003
-1.63935
-1.57352
0.358401
-0.363462
-2.62112
1.18857
-0.596772
-1.38457
0.321698
-0.767091
1.3659
0.740864
0.401592
0.611062
-4.14701
-0.431868
-0.658683
2.30432
-0.802321
-2.2651
1.59634
-0.434942
1.3402
-1.82093
-0.627102
1.22216
-1.77322
2.66337
0.263878
0.567775
-1.97814
-0.0804688
-2.68809
-0.855407
-0.605963
0.0282839
-0.835903
2.22657
-1.32814
0.465712
-3.06788
2.33612
0.312766
-1.56783
-1.90555
-0.153466
-0.902215
-1.40926
-2.37597
-0.327702
1.28762
1.03835
2.08044
0.175714
0.718413
-2.36329
-1.85453
2.28325
-0.849521
-0.420231
1.42954
2.02715
-1.01657
2.68499
0.26307
-0.198634
-0.995952
0.956678
-0.703411
-0.596147
2.51405
2.28825
-3.80105
3.05802
-0.740737
2.32259
-0.829724
-0.638188
-1.47823
-3.63155
-3.76919
-1.95842
-2.83396
-3.30142
-1.83369
-3.63187
-1.86928
-1.63614
-2.24765
1.36942
1.25039
0.47539
-2.51503
-2.86263
-2.57647
-3.00034
-3.72432
-1.78883
-1.70474
-0.195026
-1.40019
-0.63835
-3.69912
-0.2513
-0.691475
0.137302
-0.0968024
0.0487682
0.0882865
-0.842484
-0.6434
-2.25305
0.368115
-0.803362
0.529702
-4.81934
0.294521
-2.05831
-2.60504
0.0497606
-3.41897
-0.285052
-1.76442
-4.24944
-3.21315
-0.455622
-1.14255
-0.914504
-0.118208
0.657357
4.06481
-0.452047
-2.33329
-2.20162
-1.54213
-1.78429
-0.674293
-1.13886
-0.32408
-1.1189
-0.914156
-1.51543
-2.68609
-0.212479
-0.955175
-4.23318
-0.419471
0.679854
-3.12516
-0.162833
-0.0541481
-0.907584
-1.68059
-1.78926
-0.254062
-2.33617
-0.921896
-2.06102
1.68033
-0.767389
0.584632
-1.97463
-2.00844
-1.53105
0.992356
-1.97817
-0.212676
-1.85294
-3.11195
0.144899
1.60719
-0.674069
-2.1566
-2.15025
-2.18525
-4.3293
0.568438
-3.69414
-0.839019
-1.21703
0.0898051
0.490019
-0.82991
1.78557
1.17788
-0.855735
-1.37744
-2.18021
-1.2538
0.593719
-1.3292
-0.299875
-1.40866
0.471528
0.521622
-1.75234
-2.09132
0.173253
0.535803
-2.06836
-0.469875
-2.09076
0.686093
-0.190012
-0.00933291
-0.167377
-1.09154
0.213648
-1.12603
0.0299004
0.398271
1.24615
0.461996
-0.329777
-1.28866
-1.70089
0.0970828
-2.00042
-2.29221
0.739179
-1.71973
0.490196
1.11551
-1.50369
0.56024
-0.686383
-1.14012
-0.208752
0.602467
-1.93932
-3.9948
0.0223302
-1.0258
3.06704
-1.5824
-0.8386
-1.94328
-0.967453
-4.11994
-2.52504
-3.9802
-3.92246
-6.56748
-3.61552
-2.01862
0.701426
-0.321787
-0.728648
-2.53921
-0.43615
-0.648804
-4.4277
-0.653738
-1.76862
-4.57404
1.49532
-4.15124
-3.51336
-4.6804
-2.77412
-1.19068
-3.38996
-1.87473
-4.93893
-2.74952
0.310592
-3.83432
-0.622278
1.10631
-0.400027
0.165576
-0.316641
-0.315445
-0.0390486
-3.42346
-0.999646
-2.31593
-1.23741
-0.151388
-2.1115
-3.36294
-3.73233
-1.6119
-1.4933
-3.89891
-3.1111
0.251818
-0.740899
0.410089
-1.24835
0.0868541
-0.538625
-1.19289
-2.42902
-2.16606
-2.6246
0.00735303
0.314278
-4.43444
-0.904275
-2.1675
-0.395251
-3.86712
-2.6991
-3.09157
-3.11609
-0.178534
-0.947988
1.26518
-0.926032
-1.45054
1.30124
1.0695
2.15951
-2.02744
-2.45199
-3.20948
-0.993986
-1.1324
-1.45987
-0.0884033
-1.21044
-1.69158
0.165718
-1.85221
-0.881417
0.986829
-0.166738
1.71403
-1.79536
0.812502
0.597412
-0.536488
-3.13322
-1.25748
-2.78082
-0.425777
0.287147
1.22023
-0.597452
-1.68676
-1.24028
1.92798
-0.902445
-1.29903
-1.26412
-3.23162
-3.25689
-0.621479
-1.59203
1.26574
0.985407
1.23334
-0.967496
-0.0560997
1.18488
2.07204
0.0461976
-2.53716
-3.49069
0.152833
0.343168
-0.127583
2.34724
1.4558
-1.85472
-3.46396
-1.88014
-0.176831
0.743418
-0.537923
-0.520273
1.79139
1.73034
-0.403022
-0.478842
-1.49224
0.0432243
-1.24499
0.627834
-0.210672
-1.94791
-1.42271
-0.588055
0.713278
1.10304
1.34675
-0.00522184
0.423911
0.987467
-1.10066
-0.161924
-2.27089
-3.55201
-2.65111
1.16384
0.876976
3.61681
-2.60243
-2.83568
-2.7364
-3.43896
-1.22294
-2.05844
-1.11018
-2.30427
-3.88227
-0.818241
-3.09756
-0.667009
-1.72003
-2.11629
-5.76318
-3.25444
-1.82068
-4.43149
-2.24409
-2.21768
-1.30035
1.87102
-0.47032
-0.0372527
-4.16608
-0.454572
0.286859
-0.0766805
-3.21207
0.0806255
-0.718083
-3.52401
-0.0122764
-3.16048
0.897013
-3.38592
-0.02405
-0.801058
0.378735
-0.208837
-2.41431
-3.83177
-1.17818
-2.23777
-1.21168
0.102269
-4.62745
-4.69897
-2.48909
-2.2599
-2.55791
-5.3022
-1.81526
-2.17684
-1.13064
-0.240377
-1.49713
-3.36145
-2.93389
-0.0955535
-0.730048
-4.10089
-0.988965
-1.53084
-3.85059
-0.784083
-1.46831
1.84106
-0.312974
-1.63535
-0.39597
-1.15279
0.485639
-0.109438
-2.9164
-3.10262
-0.958677
-2.28774
-1.87338
-1.02097
-3.52221
-0.711172
-2.98567
-2.37276
-1.79756
-1.64741
-2.64919
-0.217341
-1.47316
-0.390356
-0.446407
0.224428
-1.04061
0.995519
1.04813
-0.765155
-1.14806
-3.16096
0.437503
-2.3032
-0.856996
-1.52559
-0.843021
0.337682
2.06695
-1.09159
-0.149132
1.5594
-4.64051
-0.203381
0.385436
0.890116
-0.94306
-1.97782
1.27354
-2.39967
-0.942893
-4.15092
-0.497881
1.78202
1.67055
3.11732
-1.91262
-1.49703
0.581964
-1.63129
-0.946636
0.745933
-2.64701
-3.3777
-0.150193
-0.738249
-0.144429
-1.61623
-1.89367
0.494657
0.230619
-0.882955
1.7453
-0.884135
1.75618
-2.28349
1.52401
1.78148
-1.97897
-1.03781
-1.29661
-0.0977308
0.424374
-1.52014
-2.25124
-2.03701
-0.515171
0.980642
-2.18879
-3.74316
1.02012
-0.35922
0.491137
1.07714
-1.82184
-1.80592
-2.50858
-1.8502
-0.293307
-1.82548
-4.20355
-0.917734
-1.61541
-2.79603
0.783316
-2.04277
-1.4083
-4.34905
-2.21829
-5.03445
-6.58369
0.306422
-3.74054
-1.56071
-0.208884
1.64402
-2.69255
-0.462062
-2.66329
-0.963858
-5.22754
0.383037
-2.05665
0.371358
0.282187
-2.83275
-0.504449
0.110867
0.641647
-4.04243
0.38381
-3.48852
-0.0987342
0.354636
0.0209275
-2.35346
-1.86636
-0.703815
-2.05483
-2.64698
0.122681
-1.4847
-1.43157
0.906074
-0.793422
0.130302
-0.9984
-3.3638
-1.1325
-1.14064
-2.44783
-2.75927
-0.183159
-0.968286
-2.31741
-1.94676
-2.52367
-2.34207
-1.86092
-1.01475
-2.56326
-2.01974
-4.0844
1.23329
0.0428917
-2.60496
-2.24819
-0.625927
-1.5782
-0.383679
-0.164089
-0.838981
0.527982
-1.34619
-2.08003
-1.65235
-1.24278
-0.979481
-2.35258
0.189143
-0.810226
1.15614
-0.889763
-1.11471
0.152207
-1.04443
-1.67699
-3.16575
-0.396235
-3.19809
-2.87955
-0.826138
0.736062
2.94611
1.0032
2.48863
0.173576
1.5424
-2.21446
-0.150139
-0.812157
-0.325569
-0.451944
-0.881758
-1.9123
0.706833
-3.05898
-0.584
0.606979
-2.5621
0.189506
0.188593
1.05632
1.38068
0.295366
-0.0486856
1.9223
-0.209391
-0.760039
-2.55752
-2.72667
0.0220032
0.120899
-0.124451
0.290978
-1.42341
1.16216
-0.766605
-2.45896
-1.21999
-0.936655
0.0143917
0.958201
-0.102444
0.0734758
-0.533608
-1.60511
0.11614
-3.50136
-3.80311
-0.949631
0.374113
-2.16234
-2.43761
-0.950731
1.31227
-3.49575
0.520363
0.658161
-2.97483
1.03064
0.355299
-0.138103
0.165181
-2.88687
0.280646
-2.87639
-0.556315
-1.23523
-4.77345
-6.03241
-1.07482
-3.58886
-3.5623
-2.5751
-2.05237
-0.243951
-1.07466
-5.28713
-1.26767
-2.54892
-2.2931
-0.762218
0.552348
-1.88842
-1.47457
-3.15574
-4.25327
-1.07104
-5.67765
-3.11664
-2.91282
-3.62625
-2.03719
-4.88027
-3.58993
-0.458356
-3.10382
-1.77525
-4.39478
-2.3441
-1.1629
0.809967
1.12916
-1.69313
-2.97946
-2.69907
-0.122288
-2.62273
-3.19577
-2.9224
-0.942257
-1.38436
-1.52954
-2.3617
-1.10914
-1.0263
-2.7927
-1.02998
-0.324769
-2.44851
-2.72455
-0.192688
-1.62391
-2.56597
-2.18414
-3.7052
-0.983285
-3.84452
-3.18461
-0.502481
-0.354933
-1.41382
1.07146
-1.70105
1.00542
-2.44066
0.134401
-3.07425
-3.30562
-0.662094
-1.82144
-1.24442
0.00662915
-1.64153
-1.92928
0.221525
-0.338925
-3.63169
-0.535523
-1.58624
0.836859
1.24876
-2.59911
-3.83481
-3.17949
-1.52406
-4.68318
0.0718853
-0.805738
0.375671
0.610605
0.0634801
-2.88119
-1.31867
0.546792
-3.24692
1.79831
0.443114
-1.81169
-0.0815376
-3.31726
-1.15907
-0.64868
-0.344992
-0.822727
-0.928477
2.00253
-2.44029
0.42759
-4.70341
-1.97054
-0.748238
0.0190964
-1.41531
0.900141
-3.14779
-0.166458
-2.00877
-0.223404
-2.08856
-1.19327
2.27511
0.42459
2.07992
-2.70296
2.28736
-0.988173
1.19714
1.51559
-1.00088
1.76462
1.50224
-2.95784
-0.978789
0.220919
-0.484264
2.73001
0.390805
-0.317577
-1.00604
1.70149
0.975259
-0.290793
-1.8375
2.21293
1.47334
-0.778784
1.07303
-2.75175
-1.06971
0.667215
0.384466
-1.15443
-0.76351
-1.39352
0.166822
-0.850892
-0.461862
-2.42489
-1.45523
-2.20232
-1.08357
-1.72508
-3.88022
-3.48941
-4.56906
-2.36022
-0.563833
-3.28729
-2.98257
-0.514455
-2.07919
-0.572887
-2.45586
-0.597823
-3.37543
-0.420395
-0.893393
0.230866
-0.463518
-0.172616
-0.598648
-0.337162
-0.888047
-0.789361
-0.529447
-1.19176
0.652396
-2.70613
0.276462
-3.04014
0.0523249
-0.12694
-0.617779
-2.51924
0.518144
-3.30064
3.27391
-0.733943
-0.416228
-2.18396
-2.79305
-2.98744
-2.01855
-0.646294
-3.29103
-0.0803154
-1.00378
-2.71444
3.06859
-2.49294
-1.08787
-1.31459
-0.203162
0.792708
-2.75186
-1.88893
0.853085
-2.06712
-3.44925
-2.93144
0.260505
-1.78087
1.02521
-1.41441
-0.776654
-0.237487
-1.99758
-0.031217
0.694036
-0.744514
0.0425276
-1.74019
-0.706297
-4.5124
-1.98181
-0.574731
0.565091
-2.07947
-0.531764
-1.84466
-1.79392
-0.467159
-0.747349
-1.42879
-1.34917
-3.86978
-1.79573
-0.935793
-1.42192
-3.48711
-0.487401
2.88534
-1.3974
-3.00706
1.67593
0.791915
-0.556654
-3.31389
-2.46216
2.10146
0.307353
-4.85909
-3.19447
-0.0691715
0.973612
0.145616
-0.299836
-0.783539
-2.39964
1.04092
0.328759
-1.39775
0.109054
-0.151236
-0.763792
-1.19503
-2.66005
-1.24688
0.692895
-0.138051
-3.58003
-0.608598
2.04503
0.15263
0.278637
-0.197455
0.186662
-1.51427
-1.45783
1.96141
0.827426
2.17572
-0.654503
-1.19671
1.68984
-2.01098
2.54258
-0.383126
-1.34873
0.722917
0.498969
0.571
1.98604
-3.85118
-1.42352
1.10047
-0.183844
1.21906
0.863627
-0.81759
2.36478
-2.72909
-1.86716
0.724831
0.996247
-1.40215
-0.393616
-1.17613
-1.23948
-0.495537
0.31898
-1.48694
-2.96026
-2.52315
-1.11445
-2.99438
0.969097
-1.49764
-3.37157
0.0415597
-1.11076
1.66787
-0.425296
-0.624597
-0.938049
-1.67257
-0.479309
0.0435215
-0.938948
0.824023
-0.994964
2.50568
-1.6533
-0.266442
-0.896825
1.57675
0.649486
-1.45528
-2.20086
-1.06044
2.42866
1.86418
-0.39811
-0.333567
0.0389252
-0.866724
-1.15141
-2.42766
-3.14232
1.2569
1.11358
-0.618609
-2.28382
-2.20352
0.436341
-0.828289
0.16683
-2.12461
0.711216
-0.885717
-1.49367
-1.64516
0.624624
0.0861602
-1.5655
-0.640663
0.0869867
-3.4758
-3.39475
-1.27798
0.248294
-1.92829
-0.669842
0.0653415
-1.83071
-0.410686
0.352033
1.90241
1.57572
0.0419832
-2.85823
0.130707
-1.34615
0.141225
0.394705
-1.14445
-4.33827
-2.24322
0.380881
-0.882279
-0.971149
-0.85952
0.349743
2.00119
-1.16501
0.678639
-0.412118
-1.55606
-1.25356
0.522937
0.417354
2.80785
-2.90221
1.22161
-1.62639
-0.445263
0.891066
-1.10214
-0.647668
1.33953
-0.256442
-0.979907
4.09398
-0.384428
-3.21956
0.312966
-2.37889
-1.96782
-1.37219
-1.28195
-1.78433
2.58277
-3.08044
-0.810936
-0.095666
-0.757953
2.30493
0.497149
-0.780322
-1.20025
1.01518
-0.727101
-0.93455
-1.44627
0.501428
1.33018
-3.53173
0.423985
-1.82238
-2.08495
0.381264
-0.347296
0.413261
1.16453
1.87163
1.01811
1.40216
-0.212885
0.683761
-0.833197
0.305239
0.143894
0.832425
0.472302
-0.0741971
-1.60972
-0.32634
0.23135
-4.5653
1.15283
-0.872995
1.93205
0.922585
-1.58917
1.80143
-0.675116
3.04348
-1.08086
-1.35402
1.62677
-1.95081
-1.19716
0.875189
-4.37693
0.276605
-1.42399
-3.15721
1.27861
-1.20189
-2.18246
1.94752
3.15581
0.386123
1.56171
-0.360447
0.863228
0.197373
0.420332
1.07316
-0.336505
-0.205501
0.538892
-0.574313
0.454693
0.150564
-0.133827
0.346102
-0.27943
0.0499358
-0.770726
-0.256917
1.90414
0.760021
0.991937
0.258348
-0.876651
-0.416397
-2.19951
-1.19727
-1.12482
-2.97354
-0.539923
-0.837918
1.46515
-3.37804
0.146923
-0.107088
-1.6927
0.515024
-0.62129
0.861486
-0.223877
-2.31088
1.10928
2.32626
-0.895457
1.77116
-2.18985
1.1669
0.670184
0.119124
-0.378659
1.71604
1.83343
-0.579789
-0.256008
0.320678
-0.572705
-2.08664
0.732536
1.22243
3.2378
-1.90781
-0.824811
-1.06967
0.74757
-1.79423
0.751098
1.38168
0.561663
-4.09014
-0.378224
-2.31002
-2.092
-2.46874
-0.98629
-0.807288
0.575069
3.86313
-0.267097
0.000189234
0.590367
0.945589
-0.596431
1.56764
0.283491
-1.30943
-2.69821
-0.773414
-0.373579
-0.577184
-3.13441
-1.04612
-1.01589
0.392715
-1.18236
0.460362
-0.0942528
-1.99079
1.56426
0.915593
0.988529
0.47883
0.0695924
1.4177
-0.458484
1.9752
-1.26213
-3.56059
0.60171
-2.39404
-2.76371
-1.44935
-1.65426
0.716212
0.947482
0.157915
0.654156
0.794816
2.12384
0.173517
-1.60707
0.52957
0.0725087
-0.993689
-0.925687
-0.671926
0.24661
1.21311
-1.08505
0.807934
0.134944
-0.82083
-0.0975017
-0.495973
0.0627317
-0.480033
0.671785
1.13642
-0.760657
-1.42571
1.06138
4.24777
0.279382
1.51083
0.141798
-0.952528
2.38851
3.48769
0.456553
-1.68758
-0.920012
1.27938
3.20211
0.502249
-0.493332
-2.09397
0.219585
2.1915
2.04342
6.03527
1.71741
3.96202
1.94138
3.46242
1.64537
2.49937
-2.36355
0.992649
-0.765269
2.25361
-1.92403
-0.695522
-0.955459
0.64084
1.17649
-0.549353
-1.00707
2.32726
3.96333
0.76201
2.44033
1.7744
2.83479
0.370013
1.49055
0.42964
0.926543
-0.717368
0.250659
-3.79619
1.9764
-0.156208
1.07099
3.08436
-0.680636
1.14578
1.02234
0.191107
1.30112
3.40855
4.37276
2.33272
1.06331
-0.827763
4.05858
0.173129
-0.596372
0.0840769
1.49346
0.228982
-2.25026
1.31185
-2.10115
-0.835249
2.03248
-1.08525
1.67856
1.7581
4.9765
3.0308
1.35612
0.223765
1.85622
4.86896
1.24383
2.08228
0.0242284
-0.490003
0.164052
-0.581343
1.41162
-1.1514
4.22421
-0.00624445
0.952357
0.449731
1.88875
4.20888
0.206306
1.32251
-0.460938
2.06491
0.507896
1.13561
1.7364
2.37933
0.99936
-0.32687
-1.26769
-1.2068
-1.02849
-2.09362
0.901857
0.850217
1.23402
-0.504135
-0.306525
3.8661
-0.256314
0.917889
1.4575
2.33455
1.83731
-1.37948
0.12518
1.97212
2.55745
-2.17701
0.82185
0.709082
-1.70504
1.40691
-0.560116
1.54787
-0.645789
0.965352
-1.36421
-0.631577
4.00832
-2.65489
-4.31527
1.99983
0.803099
1.2097
0.953851
0.956957
1.59897
0.846457
-0.561245
2.5596
0.0618757
-0.718674
-0.45429
0.917843
-0.0201501
0.265114
1.79614
-1.55371
0.563442
1.33364
1.16713
4.95574
2.10704
1.8507
2.54853
3.4222
-0.138901
3.05611
4.27472
1.67032
2.17334
1.38866
-0.19947
1.95915
2.33122
3.23993
2.68159
5.18119
4.27055
4.50393
6.68667
4.64909
0.914796
4.4981
0.737357
3.25437
-0.294555
5.5589
-0.18908
-1.18806
0.0522657
0.29118
2.01132
-0.24508
1.70045
0.349196
2.89971
0.335084
4.67328
0.416359
6.95968
3.30335
3.04176
4.05438
1.41936
1.93384
-0.209095
3.28219
1.06167
0.632068
1.68057
0.285271
5.02338
-0.618682
1.36084
0.298574
4.24647
1.84261
5.39276
1.04441
1.77852
1.12553
4.67299
0.63797
-0.0770695
-0.183207
0.526324
-0.935919
-0.534077
1.15797
3.19358
0.807442
-0.166412
-1.29729
-2.20027
3.69864
0.86953
1.756
2.66137
-0.0241977
1.79862
2.75898
3.15004
-2.09717
2.84793
3.56369
2.33379
1.47476
2.89441
-0.956852
1.29869
2.62828
-0.178536
-0.313554
1.83766
3.87058
-0.488584
1.66775
3.89665
3.50529
2.71241
1.9238
1.19681
-1.08205
0.454711
2.69426
-1.26169
0.124504
1.90896
-1.05006
2.29552
-1.31421
2.66719
-1.76825
2.35307
1.67777
0.774106
-0.381586
0.299813
1.23628
1.7814
2.2143
3.69613
-0.59287
0.832488
-0.601187
0.146475
-0.361729
-0.151682
0.89507
-0.984384
0.843615
-1.42756
-1.41585
1.88021
-1.22821
-2.18308
-0.329093
0.0224928
-0.520305
2.14294
-2.11717
-1.30785
0.748482
-1.83458
-0.200391
-2.25332
-0.38649
-0.714424
-0.955041
-0.327611
1.77906
0.857917
0.181981
-0.860627
-0.0500823
2.99317
-0.830238
1.69786
0.944206
2.30548
6.4271
6.03926
2.0223
6.45952
3.48955
2.08344
2.75426
0.966065
1.88453
2.77061
5.78694
5.35841
7.0392
3.04632
3.18973
5.72179
4.12319
5.11222
7.3611
6.39046
4.39824
3.89581
3.42463
4.59468
4.40626
0.501175
4.50833
0.70764
0.165239
2.49423
2.35819
0.417739
1.05742
1.47686
3.98962
5.11257
2.95216
8.09051
5.60551
4.5341
5.64503
7.52316
4.44788
1.51067
1.53386
0.611782
3.02002
4.67894
1.44802
0.486105
3.66367
2.35697
4.59855
2.97697
2.5784
4.65465
5.65141
1.12407
5.49653
7.27917
6.70475
5.93636
3.08547
4.81638
1.82274
3.29946
2.70533
0.0647537
1.09306
1.34016
-0.00335879
0.304272
0.841903
0.446692
1.14892
1.60463
0.0776641
2.13359
5.74449
5.50861
2.0624
3.83132
3.75241
1.16475
1.89259
0.465147
2.29268
-0.818286
0.389747
0.84874
0.919849
3.70278
4.28895
2.08733
0.962173
3.18909
6.29226
3.71228
3.98072
5.2049
2.47057
5.55996
1.04216
-0.23479
2.88868
-0.407439
3.47116
0.347531
3.7355
2.98525
-0.585297
1.78831
2.90999
0.888151
2.26679
-0.441858
-2.19996
2.8114
3.75581
0.723567
0.895813
-1.32489
0.510842
1.96213
-1.53137
0.0377277
-1.17602
0.0102349
0.282532
3.00735
-0.779597
0.790987
0.532533
0.563075
-1.63687
0.0151468
-2.78647
2.45799
1.05018
1.80851
0.662347
-0.958404
-0.406092
-0.978168
-0.82058
1.28086
0.916627
-1.59216
0.868565
0.442592
0.456145
3.18694
-1.6672
1.52317
-1.67348
0.954862
0.739882
-0.074542
1.61104
1.27446
4.92691
8.19765
5.66012
6.56215
3.35216
4.92104
3.16746
5.5196
3.47991
4.34059
3.41826
4.46161
6.92478
7.13497
3.68333
5.75716
7.5245
7.48366
6.81244
7.64831
4.79561
-0.0754925
5.49909
0.282947
5.50817
0.842148
4.07484
0.363468
3.74927
0.847841
-0.269849
3.58572
0.341964
1.94168
0.451753
3.95879
0.085005
7.06414
0.0832578
7.2278
9.23803
5.8701
3.29919
3.19837
2.54071
6.62163
3.09259
3.09526
3.31356
1.94898
1.57739
2.99974
4.93309
4.21857
2.06492
5.22169
6.46025
6.04227
5.24546
7.5095
5.92462
3.89726
3.94764
5.51594
5.28797
-0.764179
1.92898
2.99233
4.31897
2.3533
0.00708132
2.59937
0.438585
2.479
1.22516
5.51741
3.35281
3.19496
4.94204
4.45975
2.51711
4.31892
3.17748
1.57281
3.88008
2.38076
1.26685
1.30299
-0.243936
4.06198
2.44262
3.5636
-0.290144
1.104
2.98951
1.54762
2.39697
2.61728
3.05201
5.52973
5.30553
2.25454
2.55318
1.75576
1.34521
2.46926
-0.201983
2.93086
-1.24055
0.00176622
-2.37534
3.72031
2.23709
1.45223
2.05084
2.3139
1.97233
2.95333
3.85331
3.24837
2.5315
2.52935
-0.925455
0.658832
-2.41124
-0.913222
1.08493
5.40335
2.26981
0.974797
0.311708
1.87254
0.842297
1.88012
-2.63944
1.58627
1.71334
2.9057
-1.54716
2.08775
-0.970048
1.76096
-1.20499
-1.52867
0.0980641
2.41813
2.29459
-1.60622
-0.798737
0.528703
1.53242
-1.37002
1.27216
1.58359
-1.33505
-1.37144
0.257879
-2.94423
2.87443
-0.0514798
7.09122
8.68925
8.39873
7.37965
7.12452
7.98601
5.68197
6.4016
3.87727
6.39837
6.52639
4.24292
6.1073
4.86597
6.88931
8.19835
6.98354
7.96639
10.1417
10.7614
7.13559
8.36303
7.38015
6.38505
6.70978
5.22059
4.09524
4.54101
5.08297
3.88307
3.9691
3.74578
3.66037
9.41385
6.21279
3.84622
6.18393
8.09626
5.72176
10.3808
6.33364
4.32792
6.37268
4.53307
5.2746
4.31611
2.19036
5.07122
6.14589
3.0367
6.08381
3.10149
3.04795
5.73855
7.99481
3.98599
6.88972
7.03694
5.16084
9.53111
7.71616
5.3884
6.23569
2.68658
2.60613
5.07602
3.50309
4.53978
2.54685
2.60142
-1.10895
2.87274
5.08257
3.47162
5.54271
3.11776
5.07964
2.35813
5.15432
7.95381
3.77107
6.49711
2.09541
5.24879
6.42345
4.4152
2.66755
4.1718
5.12332
3.72226
1.33999
4.35844
1.73704
0.685206
2.3678
3.77026
4.31529
4.84929
4.64159
3.91738
2.65784
-0.358051
0.596982
2.84357
0.0630555
0.665092
1.68298
-0.679846
0.841374
-1.03569
-0.322146
0.846688
3.72276
0.951413
2.2324
1.63401
1.23838
3.11907
1.60102
2.35887
2.19648
2.77888
-0.815918
0.963681
2.02083
1.90991
1.2904
1.1804
0.0255104
-1.39122
0.265989
-1.01048
2.224
2.51409
1.45996
1.62426
1.88629
1.57408
2.3356
0.626748
0.000259434
1.25061
4.47516
2.70284
2.8692
0.370709
0.839497
1.42416
-3.13777
-1.74506
0.490025
-1.43869
0.861367
-0.518142
-0.700363
1.1314
-0.333728
-0.0656284
1.83051
1.40855
)
;

boundaryField
{
    hotSide
    {
        type            calculated;
        value           nonuniform List<scalar> 
400
(
2.25757
0.0782355
2.04242
1.03829
0.00716929
-3.5254
-5.60387
-0.750825
-3.40607
-1.90275
-1.13676
-2.21652
-0.107846
-1.2259
1.54988
4.8617
5.55702
7.01654
5.50543
7.65977
0.751842
1.23341
2.57992
-2.83741
-0.887227
-1.09259
-1.94188
-2.84515
-1.75542
-2.08358
-1.07178
0.996698
-0.695408
1.40537
-0.925618
0.926697
2.739
6.65687
8.80198
9.28144
0.531359
2.54082
-0.336836
2.86977
1.31328
-2.34905
-3.06062
-2.92024
-3.15176
-1.92931
-1.72327
-2.11293
0.908696
1.71705
2.50194
2.19198
2.51359
2.66813
6.29019
9.01437
3.089
1.96284
1.55396
1.42431
-1.02494
-1.12863
-1.00233
-1.04464
-3.0334
-2.5755
-1.01273
0.255188
-0.0649405
-0.641019
0.0621698
0.856432
3.24185
7.13298
7.21727
8.01802
4.75088
2.44475
3.49884
1.79047
-0.528244
-2.80267
-0.34587
-1.85501
-5.6178
-0.303424
0.595705
-0.376527