/*--------------------------------*- C++ -*----------------------------------*\
| =========                 |                                                 |
| \\      /  F ield         | OpenFOAM: The Open Source CFD Toolbox           |
|  \\    /   O peration     | Version:  2212                                  |
|   \\  /    A nd           | Website:  www.openfoam.com                      |
|    \\/     M anipulation  |                                                 |
\*---------------------------------------------------------------------------*/
FoamFile
{
    version     2.0;
    format      ascii;
    arch        "LSB;label=32;scalar=64";
    class       volScalarField;
    location    "0";
    object      T;
}
// * * * * * * * * * * * * * * * * * * * * * * * * * * * * * * * * * * * * * //

dimensions      [0 0 0 1 0 0 0];

internalField   nonuniform List<scalar> 
3200
(
352.17
350.586
349.486
348.994
348.958
349.225
349.798
350.15
350.542
350.774
350.56
350.245
349.425
348.641
347.507
346.491
345.869
345.741
346.436
347.603
345.295
343.958
343.032
342.588
342.581
342.78
343.316
343.598
343.957
344.136
343.96
343.675
342.973
342.307
341.327
340.441
339.921
339.783
340.371
341.344
338.372
337.29
336.505
336.119
336.128
336.255
336.736
336.962
337.288
337.46
337.286
337.058
336.454
335.931
335.081
334.311
333.9
333.765
334.246
335.061
331.436
330.576
329.932
329.624
329.641
329.728
330.118
330.311
330.585
330.715
330.592
330.387
329.892
329.486
328.799
328.13
327.835
327.717
328.096
328.747
324.486
323.824
323.325
323.093
323.102
323.163
323.475
323.627
323.837
323.923
323.837
323.673
323.262
322.98
322.468
321.943
321.688
321.603
321.899
322.407
317.504
317.047
316.681
316.533
316.531
316.547
316.79
316.911
317.066
317.098
317.044
316.946
316.629
316.442
316.109
315.707
315.513
315.46
315.69
316.048
310.526
310.24
310.042
309.938
309.943
309.937
310.079
310.184
310.26
310.258
310.244
310.187
309.988
309.876
309.705
309.431
309.327
309.294
309.449
309.653
303.525
303.435
303.365
303.336
303.339
303.335
303.369
303.409
303.441
303.434
303.43
303.41
303.336
303.315
303.26
303.162
303.116
303.118
303.169
303.232
352.394
350.806
349.835
349.252
349.248
349.669
350.368
350.858
351.268
351.462
351.361
350.772
350.134
349.17
348.063
346.917
346.221
346.021
346.719
347.909
345.47
344.166
343.325
342.81
342.791
343.146
343.785
344.214
344.532
344.745
344.618
344.118
343.565
342.735
341.797
340.792
340.199
340.019
340.631
341.577
338.521
337.45
336.772
336.311
336.274
336.593
337.132
337.53
337.766
337.976
337.825
337.408
336.946
336.259
335.462
334.615
334.136
333.958
334.491
335.233
331.551
330.708
330.168
329.78
329.735
329.99
330.448
330.772
330.967
331.148
331.001
330.66
330.297
329.759
329.1
328.385
328.028
327.842
328.271
328.869
324.573
323.9
323.504
323.231
323.16
323.344
323.734
323.992
324.128
324.281
324.143
323.88
323.613
323.212
322.674
322.127
321.866
321.691
322.031
322.496
317.572
317.083
316.811
316.637
316.58
316.699
316.98
317.161
317.272
317.37
317.27
317.099
316.9
316.609
316.241
315.854
315.648
315.503
315.747
316.101
310.567
310.259
310.106
309.999
309.979
310.031
310.203
310.318
310.392
310.468
310.373
310.297
310.162
309.985
309.767
309.567
309.407
309.333
309.456
309.672
303.552
303.44
303.398
303.349
303.352
303.365
303.426
303.456
303.485
303.514
303.477
303.464
303.412
303.352
303.27
303.217
303.159
303.12
303.176
303.246
352.817
351.433
350.3
349.914
349.941
350.405
351.158
351.657
352.26
352.5
352.367
351.772
351.029
349.998
348.941
347.736
347.016
346.801
347.346
348.355
345.85
344.72
343.703
343.396
343.398
343.812
344.44
344.887
345.402
345.597
345.478
344.97
344.335
343.458
342.533
341.5
340.875
340.685
341.157
341.988
338.841
337.938
337.076
336.814
336.792
337.143
337.687
338.061
338.512
338.643
338.575
338.113
337.599
336.872
336.083
335.229
334.696
334.52
334.916
335.586
331.804
331.132
330.405
330.177
330.133
330.43
330.896
331.2
331.566
331.7
331.6
331.217
330.811
330.246
329.581
328.909
328.47
328.31
328.621
329.175
324.772
324.265
323.697
323.508
323.476
323.701
324.077
324.291
324.613
324.702
324.605
324.323
324.016
323.583
323.076
322.53
322.192
322.057
322.282
322.748
317.716
317.356
316.939
316.817
316.806
316.963
317.226
317.369
317.626
317.642
317.582
317.399
317.187
316.878
316.518
316.134
315.887
315.8
315.909
316.28
310.646
310.438
310.171
310.111
310.094
310.201
310.345
310.44
310.615
310.581
310.547
310.47
310.314
310.151
309.922
309.701
309.556
309.494
309.556
309.791
303.582
303.511
303.406
303.402
303.383
303.422
303.466
303.504
303.551
303.541
303.53
303.506
303.467
303.406
303.329
303.252
303.203
303.177
303.214
303.284
353.656
352.216
351.232
350.826
351.011
351.331
352.16
352.774
353.443
353.681
353.677
353.186
352.302
351.242
350.008
348.862
348.039
347.776
348.373
349.414
346.552
345.383
344.541
344.215
344.33
344.604
345.306
345.839
346.42
346.626
346.631
346.204
345.42
344.506
343.448
342.439
341.772
341.541
342.032
342.894
339.433
338.49
337.784
337.505
337.58
337.828
338.407
338.861
339.353
339.525
339.542
339.163
338.482
337.731
336.857
335.973
335.43
335.261
335.656
336.357
332.301
331.557
330.972
330.759
330.781
330.978
331.463
331.85
332.27
332.403
332.393
332.094
331.515
330.944
330.217
329.479
329.045
328.927
329.223
329.767
325.15
324.589
324.128
323.962
323.972
324.129
324.5
324.812
325.131
325.223
325.224
324.996
324.525
324.107
323.535
322.959
322.647
322.53
322.775
323.179
317.981
317.602
317.281
317.156
317.151
317.264
317.511
317.765
317.973
318.024
318.052
317.887
317.519
317.251
316.852
316.425
316.203
316.123
316.289
316.575
310.798
310.576
310.386
310.32
310.301
310.371
310.525
310.67
310.812
310.817
310.846
310.755
310.52
310.362
310.127
309.864
309.748
309.687
309.791
309.952
303.617
303.548
303.49
303.455
303.447
303.483
303.53
303.58
303.633
303.622
303.633
303.602
303.524
303.47
303.396
303.307
303.258
303.244
303.285
303.33
354.716
353.297
352.281
351.959
352.259
352.586
353.349
354.144
354.855
355.257
355.198
354.705
353.75
352.607
351.339
350.291
349.502
349.249
349.713
350.685
347.5
346.322
345.454
345.182
345.423
345.688
346.351
347.026
347.644
348.007
347.918
347.508
346.701
345.692
344.618
343.713
343.018
342.832
343.205
343.997
340.244
339.275
338.556
338.343
338.519
338.75
339.299
339.838
340.379
340.695
340.627
340.266
339.608
338.73
337.843
337.062
336.497
336.341
336.641
337.282
332.984
332.189
331.61
331.465
331.583
331.74
332.218
332.631
333.074
333.351
333.298
332.982
332.468
331.739
331.014
330.352
329.911
329.798
330.056
330.533
325.712
325.094
324.625
324.542
324.612
324.717
325.11
325.396
325.758
325.971
325.95
325.678
325.305
324.716
324.151
323.64
323.3
323.223
323.429
323.751
318.403
317.97
317.636
317.58
317.6
317.669
317.979
318.181
318.429
318.579
318.578
318.383
318.097
317.679
317.262
316.92
316.675
316.627
316.753
316.983
311.075
310.811
310.597
310.587
310.574
310.612
310.813
310.938
311.077
311.175
311.158
311.052
310.864
310.636
310.38
310.17
310.022
310
310.077
310.198
303.713
303.617
303.559
303.552
303.546
303.567
303.635
303.672
303.714
303.746
303.741
303.705
303.637
303.565
303.477
303.411
303.356
303.364
303.376
303.406
355.953
354.601
353.758
353.246
353.485
354.002
354.77
355.548
356.292
356.778
356.747
356.288
355.45
354.223
352.967
351.793
351.027
350.935
351.223
352.145
348.567
347.444
346.717
346.275
346.481
346.927
347.584
348.248
348.886
349.302
349.273
348.884
348.15
347.084
346.015
344.997
344.356
344.287
344.514
345.26
341.146
340.224
339.629
339.259
339.414
339.806
340.341
340.895
341.431
341.783
341.742
341.445
340.81
339.875
339.011
338.181
337.634
337.579
337.752
338.364
333.727
332.978
332.485
332.21
332.297
332.628
333.039
333.495
333.943
334.231
334.184
333.957
333.437
332.663
331.958
331.32
330.856
330.857
330.95
331.422
326.29
325.701
325.307
325.1
325.136
325.409
325.725
326.066
326.43
326.639
326.617
326.439
326.015
325.458
324.884
324.415
324.045
324.057
324.135
324.458
318.799
318.373
318.105
317.961
317.978
318.184
318.396
318.65
318.903
319.042
319.016
318.886
318.605
318.216
317.787
317.473
317.194
317.208
317.287
317.486
311.302
311.045
310.885
310.791
310.801
310.922
311.041
311.217
311.364
311.431
311.411
311.344
311.169
310.95
310.683
310.506
310.343
310.345
310.392
310.509
303.792
303.708
303.648
303.613
303.618
303.662
303.701
303.762
303.808
303.838
303.825
303.801
303.744
303.674
303.592
303.528
303.465
303.478
303.482
303.517
357.276
356.161
355.086
354.816
354.992
355.412
356.164
357.03
357.863
358.373
358.447
357.958
357.137
355.977
354.715
353.602
352.795
352.733
352.958
353.782
349.709
348.795
347.87
347.618
347.773
348.152
348.779
349.535
350.237
350.662
350.751
350.318
349.596
348.606
347.531
346.573
345.892
345.867
346.025
346.715
342.136
341.359
340.596
340.389
340.539
340.826
341.341
341.991
342.59
342.939
343.007
342.62
342.009
341.188
340.319
339.488
338.943
338.926
339.059
339.599
334.523
333.878
333.282
333.102
333.229
333.436
333.882
334.422
334.885
335.177
335.227
334.898
334.382
333.735
333.048
332.371
331.92
331.937
332.034
332.429
326.889
326.388
325.92
325.768
325.891
326.031
326.414
326.814
327.175
327.401
327.437
327.172
326.754
326.268
325.739
325.218
324.86
324.904
324.954
325.247
319.229
318.854
318.54
318.426
318.535
318.625
318.917
319.165
319.451
319.592
319.621
319.441
319.112
318.786
318.401
318.043
317.773
317.833
317.847
318.055
311.558
311.321
311.146
311.071
311.146
311.191
311.361
311.49
311.702
311.762
311.782
311.684
311.46
311.298
311.057
310.829
310.675
310.732
310.72
310.85
303.88
303.8
303.733
303.709
303.737
303.748
303.806
303.839
303.923
303.937
303.955
303.906
303.841
303.795
303.711
303.627
303.566
303.602
303.598
303.633
358.794
357.71
356.847
356.489
356.615
357.092
357.82
358.676
359.505
360.06
360.175
359.738
358.965
357.727
356.647
355.561
354.673
354.61
354.854
355.545
351.017
350.101
349.399
349.069
349.202
349.601
350.228
350.95
351.669
352.154
352.255
351.862
351.185
350.133
349.215
348.276
347.526
347.491
347.641
348.226
343.227
342.461
341.906
341.581
341.733
342.059
342.571
343.181
343.801
344.223
344.273
343.947
343.357
342.506
341.74
340.932
340.307
340.312
340.405
340.852
335.406
334.776
334.361
334.063
334.228
334.479
334.866
335.353
335.905
336.254
336.266
335.985
335.501
334.824
334.218
333.547
333.064
333.087
333.13
333.461
327.554
327.105
326.752
326.536
326.672
326.847
327.146
327.522
327.946
328.242
328.214
328.002
327.627
327.125
326.674
326.113
325.756
325.784
325.789
326.054
319.697
319.405
319.114
318.969
319.087
319.195
319.423
319.674
319.982
320.199
320.166
320.014
319.758
319.398
319.073
318.685
318.425
318.445
318.447
318.63
311.831
311.662
311.481
311.386
311.481
311.536
311.68
311.833
312.011
312.147
312.104
312.027
311.881
311.67
311.461
311.233
311.102
311.098
311.079
311.189
303.965
303.908
303.848
303.819
303.846
303.879
303.912
303.964
304.034
304.073
304.048
304.027
303.989
303.915
303.848
303.758
303.733
303.711
303.713
303.76
360.493
359.524
358.696
358.242
358.37
358.73
359.42
360.267
361.161
361.802
362.018
361.585
360.699
359.61
358.527
357.387
356.57
356.415
356.684
357.448
352.492
351.692
350.992
350.611
350.693
351.019
351.612
352.328
353.099
353.634
353.805
353.449
352.711
351.766
350.85
349.843
349.151
349.01
349.212
349.876
344.488
343.823
343.24
342.912
343.001
343.263
343.739
344.374
344.988
345.444
345.566
345.278
344.692
343.867
343.105
342.245
341.67
341.574
341.729
342.258
336.445
335.897
335.446
335.148
335.266
335.465
335.831
336.357
336.816
337.227
337.305
337.087
336.614
335.946
335.319
334.628
334.159
334.08
334.21
334.622
328.39
327.93
327.629
327.374
327.471
327.633
327.874
328.305
328.642
328.989
329.041
328.893
328.489
328.013
327.498
326.979
326.61
326.553
326.646
326.966
320.309
319.957
319.775
319.582
319.655
319.749
319.917
320.252
320.462
320.743
320.759
320.642
320.383
320.05
319.659
319.306
319.04
318.997
319.057
319.294
312.224
311.981
311.901
311.781
311.818
311.854
311.959
312.183
312.289
312.478
312.465
312.387
312.248
312.061
311.803
311.614
311.442
311.412
311.454
311.601
304.105
304.016
304
303.944
303.953
303.978
304.014
304.096
304.11
304.186
304.179
304.146
304.1
304.057
303.957
303.897
303.839
303.825
303.835
303.891
362.364
361.33
360.585
360.063
360.155
360.457
361.066
361.893
362.816
363.366
363.716
363.389
362.52
361.368
360.365
359.197
358.582
358.416
358.732
359.491
354.125
353.245
352.641
352.172
352.249
352.504
353.022
353.742
354.535
355.015
355.302
355.006
354.279
353.288
352.44
351.407
350.886
350.758
351.018
351.636
345.858
345.142
344.645
344.238
344.299
344.505
344.935
345.557
346.222
346.608
346.847
346.605
346.006
345.152
344.466
343.563
343.152
343.037
343.235
343.731
337.569
336.978
336.605
336.256
336.292
336.474
336.823
337.339
337.858
338.185
338.363
338.173
337.689
336.996
336.441
335.688
335.378
335.27
335.438
335.826
329.24
328.794
328.517
328.258
328.249
328.405
328.68
329.107
329.477
329.728
329.853
329.714
329.36
328.819
328.38
327.797
327.556
327.467
327.592
327.912
320.907
320.599
320.4
320.208
320.205
320.321
320.531
320.807
321.074
321.27
321.336
321.247
321.008
320.618
320.276
319.883
319.712
319.645
319.734
319.951
312.564
312.371
312.266
312.148
312.153
312.226
312.359
312.509
312.653
312.786
312.816
312.776
312.632
312.396
312.18
311.959
311.855
311.812
311.872
311.981
304.211
304.139
304.111
304.077
304.082
304.098
304.134
304.195
304.24
304.299
304.295
304.287
304.243
304.16
304.081
304.002
303.978
303.962
303.976
304.029
364.203
363.164
362.448
361.894
361.939
362.287
362.917
363.796
364.506
364.979
365.35
364.965
364.193
363.113
362.186
361.015
360.526
360.35
360.775
361.55
355.72
354.854
354.256
353.739
353.791
354.123
354.656
355.395
356.011
356.414
356.746
356.399
355.742
354.807
354.004
352.993
352.562
352.419
352.792
353.43
347.212
346.501
346.006
345.539
345.613
345.894
346.311
346.931
347.472
347.804
348.1
347.789
347.264
346.47
345.764
344.936
344.559
344.45
344.767
345.263
338.694
338.114
337.72
337.315
337.372
337.63
337.945
338.443
338.887
339.169
339.392
339.15
338.74
338.085
337.502
336.823
336.531
336.423
336.7
337.066
330.136
329.668
329.369
329.067
329.115
329.319
329.566
329.92
330.275
330.51
330.679
330.482
330.188
329.658
329.214
328.688
328.443
328.378
328.602
328.853
321.561
321.222
321
320.791
320.847
321
321.159
321.386
321.631
321.836
321.941
321.765
321.584
321.219
320.879
320.526
320.347
320.306
320.456
320.625
312.955
312.752
312.637
312.504
312.542
312.625
312.707
312.844
312.998
313.115
313.179
313.076
312.974
312.755
312.552
312.338
312.229
312.225
312.287
312.398
304.348
304.279
304.234
304.202
304.206
304.235
304.252
304.312
304.352
304.396
304.415
304.39
304.345
304.275
304.214
304.145
304.095
304.108
304.12
304.157
366.024
364.977
364.339
363.818
363.764
364.165
364.724
365.466
366.103
366.563
366.886
366.496
365.839
364.912
363.936
363.042
362.517
362.469
362.881
363.531
357.289
356.405
355.901
355.437
355.377
355.74
356.207
356.852
357.405
357.797
358.056
357.723
357.166
356.35
355.49
354.758
354.285
354.265
354.627
355.146
348.537
347.804
347.393
346.995
346.967
347.256
347.651
348.195
348.632
348.976
349.182
348.924
348.449
347.769
347.004
346.433
345.994
346.014
346.336
346.745
339.757
339.151
338.845
338.507
338.492
338.737
339.066
339.487
339.852
340.122
340.295
340.076
339.711
339.15
338.52
338.061
337.689
337.696
337.976
338.311
330.939
330.475
330.23
329.997
329.974
330.166
330.442
330.754
331.017
331.257
331.379
331.221
330.929
330.479
330.028
329.674
329.364
329.366
329.558
329.838
322.118
321.804
321.619
321.451
321.437
321.579
321.802
322.006
322.182
322.374
322.45
322.329
322.114
321.796
321.486
321.231
321.002
320.996
321.139
321.349
313.283
313.104
312.995
312.883
312.88
312.976
313.111
313.24
313.323
313.45
313.5
313.424
313.281
313.105
312.935
312.761
312.628
312.616
312.714
312.828
304.458
304.392
304.368
304.323
304.323
304.349
304.392
304.443
304.468
304.5
304.528
304.512
304.445
304.399
304.337
304.28
304.242
304.229
304.256
304.297
367.918
367.018
366.133
365.695
365.64
365.911
366.548
366.979
367.545
368.029
368.245
367.967
367.48
366.585
365.74
365.091
364.515
364.544
364.956
365.649
358.944
358.177
357.431
357.073
357.009
357.247
357.817
358.169
358.651
359.049
359.269
358.999
358.603
357.82
357.079
356.55
356.016
356.058
356.423
356.982
349.929
349.298
348.678
348.395
348.311
348.53
349.027
349.303
349.712
350.025
350.25
349.99
349.68
349.029
348.381
347.968
347.475
347.537
347.847
348.282
340.913
340.393
339.885
339.67
339.566
339.791
340.194
340.386
340.733
340.989
341.188
340.97
340.704
340.196
339.643
339.319
338.913
338.969
339.207
339.554
331.862
331.458
331.08
330.899
330.818
331.014
331.321
331.455
331.71
331.912
332.096
331.909
331.698
331.32
330.868
330.628
330.322
330.352
330.553
330.806
322.799
322.493
322.23
322.099
322.031
322.173
322.414
322.479
322.683
322.839
322.958
322.815
322.673
322.406
322.064
321.905
321.694
321.718
321.866
322.039
313.713
313.502
313.359
313.276
313.23
313.313
313.481
313.503
313.627
313.723
313.812
313.723
313.622
313.46
313.234
313.165
313.044
313.045
313.143
313.236
304.601
304.52
304.483
304.459
304.44
304.456
304.516
304.524
304.572
304.603
304.623
304.604
304.559
304.508
304.442
304.411
304.369
304.371
304.409
304.434
369.903
368.902
368.101
367.582
367.422
367.81
368.153
368.535
369.021
369.602
369.694
369.432
369.004
368.212
367.511
367.028
366.62
366.59
367.066
367.718
360.689
359.82
359.126
358.69
358.546
358.894
359.189
359.521
359.924
360.427
360.525
360.289
359.918
359.225
358.644
358.201
357.857
357.838
358.242
358.787
351.422
350.703
350.118
349.773
349.615
349.914
350.182
350.478
350.785
351.223
351.295
351.072
350.766
350.192
349.718
349.338
349.031
349.048
349.367
349.815
342.13
341.532
341.089
340.793
340.648
340.909
341.133
341.38
341.614
341.982
342.039
341.827
341.608
341.109
340.749
340.437
340.187
340.205
340.47
340.801
332.812
332.331
332.022
331.769
331.639
331.867
332.038
332.236
332.407
332.712
332.734
332.566
332.379
331.997
331.748
331.498
331.298
331.329
331.501
331.746
323.477
323.111
322.909
322.708
322.616
322.801
322.921
323.045
323.176
323.414
323.432
323.296
323.132
322.887
322.699
322.54
322.376
322.42
322.537
322.681
314.115
313.892
313.769
313.626
313.6
313.704
313.79
313.862
313.93
314.075
314.072
313.991
313.89
313.762
313.645
313.551
313.429
313.479
313.54
313.616
304.739
304.659
304.617
304.564
304.561
304.596
304.628
304.644
304.673
304.719
304.714
304.694
304.65
304.618
304.575
304.546
304.502
304.53
304.539
304.559
371.92
371.021
370.074
369.562
369.413
369.469
369.827
370.291
370.747
371.079
371.144
370.946
370.55
369.795
369.282
368.82
368.608
368.726
369.052
369.789
362.412
361.672
360.863
360.407
360.276
360.321
360.654
361.041
361.404
361.713
361.782
361.601
361.264
360.624
360.168
359.763
359.586
359.698
359.995
360.608
352.89
352.265
351.615
351.193
351.062
351.139
351.418
351.749
352.031
352.3
352.356
352.22
351.907
351.401
351
350.663
350.501
350.624
350.877
351.361
343.329
342.817
342.323
341.948
341.84
341.917
342.149
342.425
342.628
342.876
342.893
342.785
342.528
342.127
341.805
341.522
341.384
341.497
341.693
342.061
333.736
333.326
332.981
332.691
332.585
332.651
332.84
333.049
333.186
333.407
333.388
333.318
333.113
332.828
332.544
332.331
332.228
332.318
332.472
332.746
324.128
323.83
323.608
323.396
323.315
323.347
323.477
323.635
323.741
323.899
323.872
323.816
323.673
323.479
323.261
323.139
323.054
323.112
323.197
323.415
314.495
314.324
314.19
314.056
314.017
314.013
314.108
314.214
314.26
314.365
314.34
314.327
314.216
314.11
313.973
313.909
313.86
313.905
313.939
314.078
304.852
304.794
304.754
304.712
304.702
304.692
304.728
304.774
304.786
304.816
304.815
304.805
304.78
304.737
304.69
304.657
304.649
304.665
304.678
304.723
373.922
372.969
372.029
371.524
371.333
371.337
371.497
371.958
372.213
372.504
372.507
372.413
372.072
371.478
371.027
370.64
370.56
370.747
371.13
371.89
364.136
363.349
362.566
362.152
361.96
361.947
362.077
362.494
362.676
362.967
362.966
362.889
362.591
362.073
361.68
361.35
361.283
361.451
361.781
362.412
354.324
353.692
353.05
352.718
352.512
352.489
352.623
352.985
353.101
353.379
353.373
353.293
353.053
352.628
352.281
352.004
351.949
352.097
352.389
352.885
344.499
344.013
343.478
343.206
343.05
343.015
343.103
343.41
343.504
343.757
343.744
343.657
343.477
343.137
342.83
342.612
342.582
342.696
342.958
343.326
334.638
334.289
333.872
333.655
333.546
333.511
333.589
333.812
333.891
334.101
334.069
334.001
333.858
333.607
333.353
333.163
333.174
333.278
333.475
333.742
324.772
324.533
324.219
324.082
324.024
323.977
324.042
324.198
324.254
324.397
324.384
324.323
324.211
324.035
323.851
323.703
323.723
323.805
323.944
324.12
314.882
314.753
314.557
314.48
314.441
314.419
314.452
314.541
314.589
314.657
314.657
314.621
314.58
314.457
314.336
314.248
314.251
314.295
314.391
314.497
304.986
304.942
304.875
304.854
304.851
304.838
304.841
304.874
304.905
304.916
304.912
304.911
304.9
304.855
304.808
304.773
304.773
304.808
304.82
304.864
375.861
374.945
374.046
373.478
373.314
373.141
373.311
373.418
373.691
373.909
373.99
373.876
373.624
373.174
372.798
372.314
372.386
372.578
373.138
373.812
365.829
365.101
364.308
363.82
363.68
363.503
363.644
363.747
363.977
364.184
364.254
364.151
363.928
363.552
363.224
362.804
362.858
363.027
363.509
364.07
355.758
355.188
354.509
354.086
353.979
353.829
353.946
354.031
354.212
354.405
354.474
354.364
354.188
353.859
353.587
353.227
353.287
353.45
353.812
354.29
345.695
345.208
344.666
344.321
344.222
344.101
344.192
344.268
344.439
344.587
344.66
344.532
344.439
344.122
343.904
343.603
343.675
343.802
344.1
344.491
335.592
335.204
334.774
334.514
334.424
334.335
334.396
334.49
334.639
334.743
334.803
334.677
334.618
334.36
334.196
333.923
334.032
334.123
334.336
334.645
325.454
325.178
324.871
324.69
324.606
324.556
324.589
324.667
324.778
324.857
324.899
324.804
324.764
324.569
324.455
324.233
324.341
324.428
324.559
324.791
315.3
315.127
314.938
314.839
314.786
314.759
314.776
314.809
314.887
314.961
314.965
314.913
314.893
314.768
314.711
314.56
314.639
314.697
314.762
314.896
305.13
305.074
305.015
304.972
304.958
304.941
304.94
304.96
304.996
305.034
305.013
305.002
304.991
304.96
304.938
304.876
304.911
304.928
304.944
304.99
377.832
376.757
375.994
375.214
374.883
374.817
375.035
375.085
375.264
375.417
375.445
375.354
375.227
374.851
374.549
374.14
374.383
374.496
375.044
375.756
367.537
366.627
365.986
365.307
365.01
364.973
365.168
365.135
365.34
365.478
365.504
365.441
365.311
364.994
364.748
364.353
364.587
364.669
365.144
365.736
357.209
356.458
355.942
355.346
355.07
355.065
355.227
355.171
355.357
355.483
355.488
355.479
355.366
355.1
354.862
354.52
354.754
354.792
355.213
355.688
346.851
346.26
345.845
345.337
345.074
345.113
345.268
345.175
345.347
345.459
345.45
345.47
345.37
345.146
344.953
344.648
344.875
344.863
345.233
345.617
336.475
336.013
335.711
335.313
335.071
335.124
335.254
335.179
335.291
335.38
335.373
335.411
335.341
335.164
334.995
334.746
334.938
334.913
335.242
335.511
326.087
325.751
325.551
325.246
325.082
325.117
325.206
325.158
325.223
325.298
325.262
325.326
325.298
325.156
325.029
324.846
324.991
324.967
325.229
325.383
315.672
315.494
315.355
315.169
315.059
315.093
315.142
315.117
315.157
315.204
315.166
315.238
315.208
315.123
315.048
314.918
315.027
315.005
315.162
315.245
305.253
305.201
305.153
305.082
305.054
305.058
305.073
305.069
305.081
305.106
305.079
305.118
305.102
305.072
305.05
304.997
305.042
305.034
305.076
305.11
379.474
378.574
377.707
376.993
376.518
376.465
376.478
376.6
376.703
376.909
376.738
376.686
376.575
376.375
375.959
375.878
376.11
376.383
376.824
377.558
368.941
368.181
367.444
366.808
366.393
366.371
366.38
366.471
366.566
366.763
366.585
366.57
366.498
366.287
365.932
365.832
366.071
366.305
366.671
367.262
358.375
357.769
357.135
356.584
356.218
356.219
356.262
356.284
356.377
356.558
356.398
356.41
356.362
356.177
355.885
355.753
355.986
356.168
356.494
356.953
347.773
347.307
346.788
346.336
346.01
346.038
346.099
346.082
346.178
346.307
346.182
346.222
346.178
346.041
345.78
345.667
345.838
345.994
346.28
346.632
337.149
336.786
336.408
336.085
335.794
335.831
335.897
335.862
335.937
336.028
335.959
335.992
335.968
335.865
335.662
335.542
335.676
335.811
336.036
336.293
326.544
326.281
326.017
325.789
325.576
325.614
325.669
325.631
325.692
325.755
325.707
325.737
325.732
325.665
325.508
325.396
325.521
325.607
325.783
325.951
315.946
315.788
315.629
315.491
315.363
315.39
315.444
315.406
315.425
315.472
315.445
315.448
315.479
315.431
315.332
315.263
315.324
315.381
315.506
315.584
305.336
305.292
305.234
305.189
305.152
305.171
305.18
305.17
305.172
305.182
305.177
305.184
305.189
305.172
305.144
305.119
305.133
305.151
305.203
305.224
381.001
379.912
379.16
378.316
377.656
377.507
377.582
377.656
377.76
377.867
377.788
377.749
377.751
377.42
377.076
377.205
377.364
377.706
378.172
378.823
370.181
369.288
368.619
367.927
367.313
367.197
367.29
367.339
367.428
367.543
367.473
367.427
367.466
367.144
366.859
366.957
367.107
367.377
367.771
368.313
359.371
358.642
358.07
357.547
356.979
356.906
356.994
356.99
357.076
357.18
357.14
357.099
357.146
356.846
356.623
356.689
356.821
357.041
357.362
357.796
348.565
347.998
347.538
347.127
346.638
346.575
346.67
346.647
346.696
346.809
346.767
346.74
346.8
346.538
346.37
346.407
346.523
346.706
346.931
347.3
337.77
337.349
337.004
336.673
336.279
336.25
336.319
336.269
336.329
336.433
336.399
336.386
336.419
336.221
336.097
336.106
336.209
336.349
336.506
336.789
327.011
326.683
326.457
326.195
325.931
325.924
325.958
325.908
325.979
326.038
326.02
326.013
326.03
325.889
325.824
325.797
325.883
325.967
326.088
326.286
316.231
316.012
315.908
315.71
315.566
315.56
315.591
315.559
315.607
315.65
315.627
315.627
315.644
315.552
315.521
315.488
315.555
315.606
315.673
315.791
305.433
305.363
305.335
305.252
305.215
305.21
305.224
305.212
305.238
305.254
305.244
305.25
305.244
305.212
305.2
305.177
305.215
305.227
305.25
305.286
)
;

boundaryField
{
    hotSide
    {
        type            fixedGradient;
        gradient        nonuniform List<scalar> 
400
(
548.174
549.854
554.824
562.997
574.054
587.53
602.929
619.799
637.762
656.524
675.864
695.624
715.695
736.009
756.532
777.259
798.203
819.388
840.835
862.555
525.458
527.442
532.945
541.863
553.807
568.227
584.556
602.291
621.027
640.457
660.357
680.57
700.995
721.574
742.285
763.135
784.155
805.385
826.861
848.605
511.53
514.126
520.205
529.65
542.072
556.927
573.646
591.724
610.748
630.408
650.474
670.789
691.255
711.818
732.465
753.211
774.096
795.168
816.471
838.033
505.828
509.326
516.037
525.842
538.406
553.261
569.899
587.853
606.726
626.206
646.063
666.138
686.331
706.594
726.918
747.325
767.855
788.559
809.484
830.662
506.151
510.716
518.15
528.326
540.965
555.683
572.051
589.653
608.122
627.157
646.532
666.091
685.741
705.441
725.189
745.017
764.969
785.099
805.455
826.074
509.993
515.692
523.957
534.648
547.515
562.226
578.407
595.683
613.713
632.211
650.962
669.825
688.724
707.638
726.589
745.621
764.793
784.167
803.795
823.72
515.292
522.135
531.331
542.72
556.056
571.022
587.261
604.406
622.121
640.128
658.226
676.3
694.308
712.272
730.25
748.319
766.561
785.051
803.85
823.003
520.471
528.414
538.596
550.836
564.876
580.382
596.976
614.262
631.875
649.523
667.016
684.276
701.321
718.238
735.144
752.163
769.408
786.969
804.917
823.298
524.289
533.205
544.334
557.484
572.375
588.642
605.854
623.55
641.299
658.762
675.754
692.246
708.343
724.222
740.076
756.083
772.387
789.095
806.278
823.981
525.759
535.401
547.298
561.252
576.967
594.045
611.995
630.27
648.343
665.808
682.469
698.362
713.687
728.722
743.737
758.957
774.55
790.628
807.262
824.49
524.186
534.178
546.5
560.951
577.227
594.907
613.456
632.261
650.717
668.356
684.972
700.638
715.629
730.288
744.933
759.814
775.11
790.934
807.355
824.406
519.282
529.164
541.456
555.956
572.354
590.217
609
628.078
646.838
664.806
681.763
697.772
713.096
728.067
742.999
758.141
773.672
789.709
806.321
823.545
511.277
520.592
532.412
546.535
562.643
580.304
598.988
618.111
637.113
655.56
673.226
690.114
706.396
722.327
738.167
754.137
770.408
787.098
804.287
822.018
500.958
509.339
520.374
533.863
549.485
566.808
585.322
604.49
623.812
642.894
661.498
679.557
697.141
714.401
731.523
748.683
766.031
783.685
801.73
820.221
489.653
496.863
506.965
519.772
534.949
552.049
570.556
589.95
609.757
629.6
649.225
668.512
687.449
706.106
724.597
743.053
761.6
780.348
799.382
818.764
479.262
485.185
494.343
506.559
521.467
538.565
557.292
577.102
597.517
618.157
638.756
659.159
679.308
699.216
718.95
738.604
758.283
778.086
798.098
818.381
472.342
476.985
485.261
497.005
511.787
529.017
548.056
568.312
589.288
610.601
631.981
653.257
674.346
695.232
715.952
736.575
757.19
777.889
798.752
819.84
472.009
475.533
483.009
494.278
508.852
526.059
545.194
565.634
586.872
608.53
630.338
652.123
673.792
695.309
716.691
737.99
759.279
780.643
802.158
823.876
481.039
483.772
490.508
501.104
515.078
531.754
550.437
570.51
591.482
612.983
634.747
656.6
678.436
700.205
721.906
743.57
765.256
787.03
808.957
831.079
500.247
502.558
508.605
518.273
531.163
546.705
564.294
583.376
603.496
624.301
645.529
666.999
688.592
710.242
731.927
753.655
775.46
797.386
819.476
841.757
)
;
    }
    coldSide
    {
        type            mixed;
        refValue        uniform 300;
        refGradient     uniform 0;
        valueFraction   uniform 0.991591;
        source          uniform 0;
        value           nonuniform List<scalar> 
400
(
300.03
300.03
300.03
300.03
300.031
300.032
300.033
300.033
300.035
300.035
300.037
300.037
300.039
300.04
300.041
300.042
300.043
300.044
300.045
300.046
300.029
300.029
300.03
300.03
300.03
300.031
300.032
300.033
300.034
300.035
300.036
300.037
300.038
300.039
300.04
300.042
300.043
300.044
300.045
300.045
300.028
300.029