/*--------------------------------*- C++ -*----------------------------------*\
| =========                 |                                                 |
| \\      /  F ield         | OpenFOAM: The Open Source CFD Toolbox           |
|  \\    /   O peration     | Version:  2212                                  |
|   \\  /    A nd           | Website:  www.openfoam.com                      |
|    \\/     M anipulation  |                                                 |
\*---------------------------------------------------------------------------*/
FoamFile
{
    version     2.0;
    format      ascii;
    arch        "LSB;label=32;scalar=64";
    class       volScalarField;
    location    "0";
    object      stateMean;
}
// * * * * * * * * * * * * * * * * * * * * * * * * * * * * * * * * * * * * * //

dimensions      [0 0 0 1 0 0 0];

internalField   nonuniform List<scalar> 
3200
(
319.738
319.737
318.596
318.477
318.818
319.761
319.851
319.911
321.347
321.7
320.256
320.758
320.274
320.189
319.891
320.022
318.871
319.178
320.316
320.124
317.434
316.805
316.982
316.236
315.486
317.713
316.684
317.764
317.041
318.161
318.709
318.319
318.014
317.819
318.053
316.865
316.814
316.419
317.564
318.276
315.069
314.268
313.875
313.866
314.361
314.827
314.951
315.094
315.101
316.031
315.599
315.016
316.043
315.284
314.957
314.573
314.557
314.427
314.53
315.579
312.266
312.198
311.285
311.101
311.131
311.468
313.206
313.223
312.453
312.39
313.332
312.461
313.577
312.558
311.302
311.766
311.447
311.516
311.376
311.897
309.649
308.668
308.977
309.173
309.263
308.693
309.739
310.176
309.831
310.2
309.781
309.745
310.269
308.749
309.204
309.501
308.936
308.727
309.954
310.022
308.327
306.688
306.466
305.961
305.4
306.321
307.244
306.655
306.154
307.281
307.085
307.045
306.578
308.399
306.926
307.005
306.949
306.935
307.077
306.314
303.212
303.321
303.459
303.371
303.832
303.742
304.508
304.97
304.841
304.796
305.064
304.427
304.598
303.902
304.132
303.549
303.442
303.842
302.665
303.948
300.726
302.114
300.348
300.522
301.556
301.312
300.87
300.323
301.38
300.504
300.962
301.948
301.2
300.799
301.84
301.113
301.448
301.67
301.523
300.831
319.858
317.946
318.26
320.069
319.155
319.768
320.212
321.144
320.296
320.578
320.629
320.654
320.784
320.711
320.43
320.475
317.993
319.574
319.445
319.556
317.073
317.273
316.336
317.615
316.521
318.467
318.186
318.828
317.627
319.562
319.587
317.788
319.181
319.121
318.273
315.971
317.227
316.954
317.004
317.311
314.036
314.745
314.826
313.649
314.309
315.418
314.586
315.383
314.606
315.132
315.249
315.909
316.672
315.953
314.914
314.325
315.373
315.098
315.151
315.574
311.613
311.298
311.719
310.526
311.818
311.576
312.934
312.134
312.232
312.687
313.348
312.999
313.16
311.722
312.219
311.931
311.427
310.87
312.395
311.485
308.883
309.811
308.226
308.755
309.875
309.097
309.414
309.659
310.251
310.021
310.266
309.914
309.729
308.278
309.53
310.045
309.822
309.729
310.461
309.21
305.95
306.893
305.34
305.345
307.182
306.042
307.291
307.426
308.08
308.364
307.035
307.427
308.162
307.422
306.098
306.598
306.943
306.777
306.896
306.271
304.639
303.253
304.343
304.758
303.841
304.46
303.861
303.101
304.344
303.573
303.71
304.4
304.619
304.238
303.28
304.356
304.828
304.069
304.423
304.846
301.111
301.589
302.362
301.338
301.066
301.143
300.138
302.083
301.169
301.015
302.233
301.01
301.414
300.473
301.217
302.076
301.754
301.036
301.383
301.143
321.085
319.616
318.99
319.408
319.703
318.96
321.27
320.806
320.628
321.222
321.514
320.663
320.963
320.352
319.839
319.465
320.083
319.205
319.93
319.68
317.649
317.94
316.356
316.167
317.017
318.076
317.373
318.632
319.392
318.568
319.051
318.766
318.375
318.558
317.53
318.009
317.347
317.376
317.059
317.873
313.609
315.551
313.703
314.477
314.357
314.562
315.735
315.206
316.437
316.227
316.191
316.83
315.55
314.64
315.143
313.729
315.034
313.767
314.452
315.209
312.167
313.43
311.577
311.48
311.302
312.387
312.428
311.745
312.674
313.398
312.706
312.332
313.196
312.362
312.046
311.736
311.543
312.233
312.513
311.304
308.316
309.029
308.933
308.853
309.797
309.262
308.76
309.481
310.985
310.151
310.732
310.16
309.529
309.826
310.331
309.274
309
309.737
309.411
308.568
307.247
307.343
305.493
306.72
305.976
306.624
307.837
307.114
307.697
307.381
308.237
307.191
307.44
306.402
306.966
307.573
307.286
306.283
307.261
307.457
304.37
303.899
303.84
303.985
303.499
304.347
304.572
304.254
304.75
303.974
303.901
304.326
304.585
303.84
304.637
303.708
302.471
303.112
303.95
304.043
301.475
300.709
300.757
301.226
302.531
301.498
302.048
300.81
301.727
301.642
301
300.402
300.808
300.419
301.526
301.729
300.484
301.854
301.814
301.302
320.761
319.861
319.434
318.895
319.037
320.239
320.676
320.305
320.559
323.021
321.993
321.78
321.384
321.615
321.349
320.166
318.843
320.088
319.36
320.341
317.371
317.044
317.917
317.387
316.713
318.385
317.236
319.744
319.342
319.748
319.734
318.62
319.16
319.739
317.996
316.187
318.038
317.374
316.705
317.252
314.281
314.414
313.149
314.829
314.776
314.325
315.144
316.055
315.725
315.462
316.091
317.294
315.922
315.638
315.793
315.092
315.388
314.765
315.51
315.873
311.466
312.472
311.342
311.755
312.079
312.753
313.093
313.169
313.352
314.03
314.007
313.477
312.801
313.27
312.367
313.499
311.906
312.546
312.301
312.409
309.188
309.765
309.304
309.232
308.837
309.238
309.095
310.392
310.907
311.498
310.094
311.098
310.047
310.156
309.258
309.536
309.161
309.404
309.49
309.624
306.914
306.759
307.2
306.656
306.651
306.683
307.395
306.648
307.355
307.412
307.858
307.701
307.986
305.786
307.357
306.998
307.098
305.856
306.434
306.854
304.005
304.025
304.139
305.732
304.317
302.89
304.298
305.17
303.98
304.996
305.409
303.958
304.137
303.404
304.679
303.628
303.577
303.992
304.178
304.992
300.567
301.937
301.468
301.036
301.231
302.062
301.355
301.754
301.378
302.36
301.061
302.271
301.532
301.178
301.468
301.454
301.103
301.73
301.577
302.239
320.322
319.26
319.302
320.279
319.179
320.992
320.495
321.423
322.167
322.771
322.442
322.771
321.793
322.275
321.037
322.045
320.994
319.993
320.87
319.742
318.524
317.75
319.318
316.657
317.033
318.341
318.425
318.509
318.631
318.524
319.753
319.861
319.142
319.603
318.631
317.254
318.163
317.593
316.856
317.599
315.621
315.451
315.095
314.419
315.451
315.12
315.317
316.394
316.612
316.955
316.512
316.473
316.539
316.517
315.339
315.785
315.021
315.511
315.65
315.7
312.184
312.36
311.771
311.723
312.129
312.807
313.334
313.107
313.48
314.487
314.065
313.582
313.637
313.76
312.311
312.186
311.998
312.907
312.619
312.236
309.92
309.3
309.403
308.626
310.512
308.684
310.599
309.562
311.105
310.887
310.402
310.127
310.34
309.297
310.681
309.48
309.819
309.383
309.871
309.796
306.831
307.157
306.456
307.212
306.365
306.543
307.62
306.56
307.595
308.112
307.875
307.904
307.19
306.979
306.357
307.354
307.001
307.87
306.942
306.965
303.555
304.275
304.03
304.294
304.041
304.323
303.818
304.809
304.852
304.361
304.157
304.092
304.101
304.821
303.424
304.907
303.929
305.016
304.849
304.104
300.402
301.812
301.138
301.298
300.763
301.763
301.112
302.069
301.21
300.693
300.96
301.388
301.883
300.774
301.691
302.144
301.079
301.825
301.471
302.307
320.32
321.427
320.245
320.224
320.546
320.621
321.743
322.073
323.39
322.712
322.976
322.785
322.508
321.547
322.347
321.887
321.125
320.494
320.438
320.345
317.981
317.475
317.332
318.042
318.939
318.938
317.794
319.549
318.778
320.341
319.863
320.612
319.459
319.656
318.868
318.325
318.517
317.48
317.375
318.706
315.268
314.569
315.238
315.288
315.314
313.952
315.846
316.082
316.563
316.868
316.389
317.09
316.88
317.475
315.774
315.238
316.076
314.699
314.666
316.514
312.707
311.851
313.139
313.22
311.852
312.152
312.701
314.436
313.577
314.627
313.813
314.309
313.576
313.925
312.939
312.199
313.889
312.622
312.5
312.883
309.93
309.622
310.383
310.144
309.879
310.313
309.694
310.163
310.754
310.8
311.791
311.105
310.019
311.416
310.844
309.55
310.233
309.591
308.267
310.83
306.973
306.915
306.425
307.668
306.872
307.486
306.179
307.32
308.067
307.027
308.294
307.622
307.311
306.45
306.464
306.296
307.27
306.112
306.385
306.513
303.263
304.141
305.332
303.913
304.421
303.034
303.777
304.93
305.137
305.584
304.147
304.054
305.188
304.454
304.11
304.731
303.982
303.661
304.718
304.313
300.843
301.64
301.385
301.172
302.578
301.707
300.599
301.282
301.132
302.626
301.898
301.641
301.048
300.504
300.833
302.068
301.244
301.852
299.778
301.176
321.252
319.5
320.471
320.852
320.904
321.574
322.04
322.937
323.122
323.431
323.044
324.314
322.722
322.248
321.146
322.124
321.265
321.255
322.084
320.758
318.294
318.731
316.673
318.484
318.179
318.999
319.212
320.54
319.571
320.621
321.151
320.684
319.601
319.37
318.996
319.717
319.701
318.65
318.464
318.764
315.621
316.586
315.683
316.005
316.822
316.131
316.2
316.355
317.597
316.722
317.474
316.451
317.216
317.472
315.522
316.385
316.096
314.715
314.845
316.57
312.416
311.974
312.459
312.485
312.999
312.666
312.983
313.134
313.671
314.731
313.812
314.257
314.393
314.087
314.478
313.559
313.623
312.155
312.401
312.973
310.56
309.427
309.06
309.966
309.196
310.711
310.802
310.727
311.291
310.136
312.423
311.157
310.462
310.9
310.622
309.941
310.683
310.44
310.744
310.386
307.048
307.928
307.897
307.369
307.841
307.373
307.901
308.225
307.815
308.462
306.882
307.273
307.457
307.979
306.47
308.571
306.352
306.536
307.339
307.417
304.708
304.885
303.819
303.774
304.317
303.978
304.338
304.816
305.496
304.321
305.135
304.944
304.904
305.541
304.559
305.249
304.006
303.764
304.226
305.09
300.832
301.593
302.076
300.941
301.453
301.114
301.355
301.522
301.412
303.026
301.205
301.79
301.369
301.966
301.88
299.842
301.838
301.629
300.744
301.956
321.463
320.425
321.778
322
321.898
322.436
322.92
323.612
323.443
323.932
323.573
323.711
323.582
323.883
322.471
321.764
321.464
321.767
321.565
321.598
319.105
317.823
318.006
319.048
319.232
319.778
319.673
320.312
319.964
320.289
319.887
321.585
319.493
320.847
319.365
319.348
318.339
318.988
317.941
320.444
315.819
316.314
315.789
315.449
316.184
316.924
316.516
316.514
317.53
317.741
317.234
318.386
317.045
317.335
316.488
317.32
316.109
316.938
315.569
316.681
313.672
313.535
312.202
313.585
313.518
314.55
313.378
314.661
314.269
314.538
313.89
314.997
313.828
313.608
313.178
313.129
313.658
312.542
313.093
313.65
310.969
310.455
310.2
310.389
309.731
310.899
310.753
311.141
310.709
310.556
311.839
311.105
310.642
310.247
311.759
310.83
311.112
310.733
309.584
310.474
307.292
306.922
307.645
307.85
306.875
306.327
307.025
308.021
307.8
308.237
308.436
308.158
308.11
308.243
307.808
307.585
307.536
307.914
307.151
308.163
304.529
304.725
304.161
303.783
303.679
304.325
303.673
304.962
306.043
304.624
305.032
304.157
305.204
305.1
304.348
304.623
303.935
304.61
304.22
304.773
302.01
301.9
301.724
301.434
301.376
301.433
301.784
302.425
302.258
301.046
301.464
302.667
301.394
301.48
301.372
301.762
301.262
301.748
301.727
301.181
322.689
322.649
322.183
320.773
322.152
322.89
322.742
323.534
323.993
324.015
324.632
323.427
324.138
323.338
322.806
322.76
322.798
321.579
322.048
322.045
319.915
318.686
318.199
318.25
318.593
320.325
320.807
321.204
321.387
321.331
321.2
321.608
321.479
320.428
320.236
320.616
320.375
319.405
319.195
320.734
317.237
316.219
315.469
315.608
317.01
316.562
317.261
317.572
318.021
317.412
318.924
318.173
317.534
318.422
316.645
316.844
317.412
316.935
316.483
316.232
313.798
312.727
312.992
313.386
313.199
314.515
314.603
314.087
314.151
314.636
315.218
314.874
313.494
314.196
313.472
314.041
314.242
313.846
312.948
313.6
309.804
309.628
310.813
310.75
310.482
311.872
311.002
311.062
312.435
311.677
310.781
311.932
312.786
310.716
311.295
310.562
310.882
310.798
310.794
311.101
307.801
308.643
306.344
306.899
307.88
306.894
308.239
307.468
307.747
308.64
307.857
308.754
308.291
307.804
307.726
308.363
308.188
307.845
307.65
307.535
304.012
304.452
304.344
304.302
304.695
303.787
304.539
304.948
305.273
305.919
304.696
305.782
305.076
305.015
304.66
305.395
304.844
304.644
305.582
304.309
301.626
301.479
301.12
301.382
301.648
303.223
300.863
300.811
300.713
301.124
301.815
301.238
301.952
301.536
301.688
300.58
301.502
301.209
301.967
301.976
322.039
322.839
322.098
323.719
322.382
323.299
322.21
323.907
324.497
323.3
324.821
324.551
324.129
323.438
323.123
323.995
323.391
323.298
322.77
322.576
320.087
318.769
319.082
319.304
319.909
320.47
320.056
320.222
322.867
320.343
320.372
321.647
320.608
321.111
320.137
321.016
319.331
320.138
318.707
319.581
316.905
316.839
317.027
316.013
317.118
316.597
316.663
317.463
318.166
318.167
319.278
318.915
319.372
318.071
317.741
317.445
317.169
317.297
317.505
317.708
313.461
313.996
313.538
313.572
312.598
314.069
314.624
314.585
315.168
315.382
315.344
316.001
314.921
315.854
314.612
314.227
314.275
314.62
313.452
313.195
310.375
310.623
311.697
310.605
310.749
310.862
311.498
310.873
311.65
311.298
311.965
311.386
310.981
310.513
311.46
310.86
311.636
310.274
311.381
311.283
308.055
307.598
306.898
307.643
307.192
308.116
306.813
308.765
308.335
308.642
308.436
308.025
307.667
308.679
308.132
307.231
307.308
308.337
307.756
308.264
304.491
305.955
304.255
303.89
304.252
303.483
304.858
304.934
304.734
304.487
304.566
305.18
304.426
304.628
305.651
303.31
305.582
304.684
304.915
305.174
301.781
301.366
301.9
301.947
301.835
301.705
301.585
302.245
301.641
301.546
302.015
301.317
302.303
301.385
301.693
302.355
302.269
301.629
302.414
301.877
323.462
322.829
323.019
322.034
324.169
322.835
323.473
325.101
324.735
324.631
326.188
325.862
325.834
323.87
325.091
324.315
323.435
323.435
323.39
323.441
320.726
319.699
319.93
319.704
320.441
320.368
320.778
321.059
322.142
320.675
320.853
322.609
320.744
320.125
320.486
319.909
320.004
320.518
319.419
320.643
317.091
317.85
316.731
318.104
317.452
317.802
319.264
318.088
319.167
318.229
318.943
318.512
319.415
318.053
317.923
317.361
317.366
317.509
317.5
317.567
314.397
313.795
313.849
312.762
313.321
314.797
314.446
313.947
314.693
314.848
315.566
315.757
315.255
314.063
315.47
313.88
314.031
313.573
314.399
314.653
312.001
310.588
310.179
310.192
311.385
311.221
311.538
311.486
311.836
311.481
311.469
312.397
312.412
311.81
311.24
311.264
310.569
311.411
311.565
311.38
308.18
307.951
307.457
307.506
307.86
308.551
308.995
308.267
309.254
308.563
308.288
308.714
309.188
309.157
308.711
307.727
308.172
308.236
307.66
308.558
304.683
305.664
304.381
304.83
305.083
306.144
304.045
304.84
304.437
305.423
305.52
305.792
306.113
304.842
305.82
304.505
305.387
305.916
304.4
304.567
301.551
302.19
300.912
300.923
300.669
302.039
301.809
301.24
302.422
301.308
301.648
301.823
302.979
301.262
302.584
302.081
301.166
301.213
302.069
301.911
324.46
323.253
324.145
324.284
325.032
324.704
324.026
325.468
325.587
325.961
325.15
325.366
324.758
324.691
323.424
325.014
323.985
323.333
323.381
324.428
319.783
320.532
320.49
321.099
320.549
320.478
320.029
322.381
322.492
322.478
322.796
322.479
322.745
321.925
321.419
321.35
320.883
320.791
320.813
320.888
317.014
318.618
317.646
316.763
317.224
317.867
318.437
318.664
319.216
318.802
318.374
319.353
319.128
319.265
317.956
316.874
318.271
317.191
316.574
317.904
314.321
314.041
314.797
313.804
314.299
315.118
314.868
315.535
315.43
316.155
316.567
315.864
315.032
315.739
315.429
314.426
315.005
314.981
314.661
315.135
311.496
310.907
311.463
311.255
310.347
311.861
311.668
312.022
312.277
312.016
312.893
311.611
312.77
311.628
312.581
311.665
311.038
311.921
311.814
312.208
308.683
307.722
308.065
308.15
308.918
308.355
308.465
308.829
309.199
309.426
308.615
309.485
308.49
308.578
307.946
307.705
307.768
308.083
307.538
308.325
305.099
304.71
303.876
304.025
305.248
305.837
305.967
305.258
305.278
305.253
304.916
304.593
305.984
304.807
305.361
304.418
304.939
304.5
304.661
304.552
302.642
301.564
301.692
301.365
301.474
300.511
301.363
301.573
301.59
301.87
302.253
301.41
301.496
301.604
301.351
301.267
301.426
301.814
301.995
300.621
324.491
323.579
324.04
324.337
324.739
324.858
324.413
326.318
325.979
325.662
326.482
326.776
325.319
326.219
325.162
325.257
324.091
324.615
325.09
324.488
321.273
320.507
320.861
320.792
322.302
321.869
321.207
321.476
322.364
321.491
321.585
322.548
321.472
322.408
321.266
320.897
320.876
321.087
320.812
321.769
318.363
318.249
317.212
318.632
318.063
317.951
318.385
318.508
318.918
318.657
319.987
320.186
318.26
319.234
319.248
318.404
317.607
318.174
318.339
317.699
315.509
314.811
315.537
314.507
314.627
314.642
315.17
315.505
315.823
315.193
316.625
315.041
315.224
314.91
314.921
315.349
315.29
314.855
314.924
314.373
310.4
312.086
311.228
311.787
311.542
312.321
311.199
311.399
313.913
311.755
312.081
312.382
312.191
312.246
311.595
312.247
311.528
311.258
312.019
310.946
308.126
308.568
307.279
308.538
307.961
308.436
307.747
308.245
308.566
309.127
309.475
309.935
308.51
307.952
308.68
308.325
308.381
308.736
307.87
307.911
304.396
305.466
304.615
304.527
304.707
304.55
304.878
305.704
304.789
304.901
305.08
304.872
306.208
304.88
305.573
305.344
306.253
304.904
304.819
304.774
302.135
303.529
301.761
301.416
301.257
301.484
302.389
301.889
300.934
301.854
302.012
301.552
302.281
302.423
302.053
302.315
302.069
300.976
301.074
300.769
325.44
325.604
325.466
324.283
325.507
325.568
324.293
325.883
326.483
327.191
325.287
327.245
326.332
326.366
326.561
325.042
325.18
325.226
324.447
325.75
322.009
321.799
321.473
320.914
321.207
322.546
321.855
322.943
322.221
323.238
322.853
323.041
323.646
322.797
322.401
321.622
321.685
322.753
322.119
322.884
318.586
318.284
319.077
320.114
318.583
318.759
319.208
318.692
318.969
319.643
319.611
320.494
319.221
318.817
319.079
317.765
319.185
318.686
319.164
318.157
315.289
315.895
315.674
314.987
315.031
314.968
314.979
315.879
315.852
316.894
315.239
315.899
316.321
316.879
314.399
314.282
316.1
314.68
314.865
315.597
312.184
311.197
312.574
311.206
310.929
310.988
313.013
311.673
312.383
312.74
311.963
312.799
312.541
312.27
311.32
312.267
312.826
312.398
312.121
312.034
307.37
308.234
308.206
307.698
308.078
309.003
308.2
310.036
308.705
308.937
308.888
308.737
308.713
310.19
308.791
309.065
308.212
307.885
308.931
309.276
305.877
304.397
305.267
305.51
305.315
304.611
304.696
305.039
305.152
304.349
305.478
305.414
304.675
305.852
305.552
304.465
306.269
305.396
305.581
305.928
301.242
301.658
301.159
302.228
302.26
302.32
301.979
301.403
301.866
302.121
301.222
301.916
302.38
302.651
300.348
302.106
301.853
301.218
301.246
302.204
325.484
325.504
324.981
325.495
325.802
325.929
325.4
326.946
327.027
327.285
326.854
327.227
326.179
325.746
325.977
325.241
326.42
324.787
324.164
325.263
322.814
321.666
322.307
321.834
320.873
322.363
323.126
322.762
322.729
323.557
323.312
324.596
322.749
322.254
323.054
323.471
322.017
321.438
321.836
322.42
319.073
319.071
318.032
317.762
317.596
320.184
319.394
318.773
319.545
319.831
319.602
320.38
319.286
319.555
318.871
319.819
319.156
318.834
318.651
319.65
315.182
315.827
315.032
316.038
315.48
316.679
315.262
316.234
316.099
315.986
316.598
315.791
316.971
316.333
315.509
315.752
315.951
315.505
316.088
314.948
312.282
311.834
312.264
311.685
311.625
311.147
313.129
312.42
311.523
312.293
313.439
312.92
312.789
311.696
312.288
312.508
312.04
311.138
312.065
312.47
309.072
309.101
308.063
307.562
309.577
307.826
309.112
309.182
307.978
309.408
309.198
309.332
309.353
308.864
309.506
308.73
308.053
309.262
307.938
308.062
304.618
306.655
303.339
305.313
304.623
305.659
305.43
305.565
304.086
305.365
305.636
304.958
304.995
305.208
305.476
305.901
305.824
306.383
305.656
305.29
301.67
301.718
301.181
301.138
300.728
302.418
300.953
301.012
301.464
302.281
301.612
300.985
301.831
301.577
303.034
301.926
301.69
302.207
302.537
302.461
326.241
326.104
325.358
324.869
326.611
326.456
326.992
326.744
326.546
328.171
326.251
326.71
326.69
326.025
326.731
325.844
325.609
326.035
326.04
326.235
322.824
322.962
323.937
322.293
322.89
323.247
323.207
322.796
323.772
323.418
322.573
324.019
323.178
323.196
322.269
323.531
323.341
322.139
323.035
322.387
319.663
319.06
319.571
319.302
319.582
319.116
319.778
319.523
320.205
320.513
319.603
320.488
321.006
319.456
319.93
319.706
318.564
319.278
319.891
318.954
315.646
315.027
315.471
315.196
316.061
316.024
315.73
316.254
316.562
315.762
316.405
317.943
317.298
317.401
316.129
314.909
315.84
315.782
316.86
316.694
311.624
312.594
312.005
312.727
312.292
312.406
311.474
313.87
313.902
313.506
312.914
312.905
313.041
312.602
312.892
312.633
311.68
312.644
312.264
312.937
309.359
308.924
309.426
308.505
308.071
308.524
309.847
308.421
308.599
308.923
309.861
308.727
309.258
308.583
308.282
309.177
309.489
309.222
309.54
309.1
306.487
305.403
305.235
305.72
305.6
305.702
306.617
305.598
306.662
305.386
305.692
305.51
305.303
305.641
305.119
306.243
304.316
305.164
305.381
305.583
301.806
301.268
302.845
301.682
300.196
301.395
302.357
301.729
302.68
301.633
301.725
301.271
302.153
300.532
301.033
301.454
302.206
302.065
301.83
302.22
327.133
328.201
327.802
327.097
326.088
326.893
326.48
326.791
326.827
327.559
325.686
328.156
326.624
327.667
326.452
326.555
327.527
325.82
325.906
326.714
324.133
323.608
322.944
323.549
322.418
323.636
323.471
324.443
324.018
324.235
323.975
324.013
323.969
323.278
323.792
322.554
323.509
323.497
323.19
322.193
321.329
319.312
319.22
319.783
318.916
319.62
319.93
320.1
319.834
320.511
320.898
320.289
320.168
319.751
319.286
318.68
320.145
319.553
319.557
321.004
315.183
316.382
316.274
315.771
316.006
315.873
316.033
316.326
317.325
316.212
316.35
316.867
316.881
316.151
316.89
316.153
315.993
315.214
316.358
316.524
312.837
311.736
312.093
312.204
312.531
312.212
313.396
312.178
312.058
313.089
312.814
312.977
312.815
312.768
312.298
312.369
311.638
312.898
312.869
311.827
309.119
308.525
308.984
308.403
309.032
310.043
310.014
309.495
310.23
309.367
308.85
309.352
309.07
309.532
309.242
309.697
309.499
308.745
309.355
309.861
305.896
304.827
306.008
304.602
305.413
305.49
305.745
305.785
305.014
306.818
305.237
305.53
304.896
305.101
305.806
304.864
305.634
305.155
305.47
305.253
302.129
301.663
301.956
301.929
300.907
301.555
301.338
302.127
301.268
301.532
301.15
301.439
301.102
302.101
301.401
301.321
301.302
302.464
302.01
302.207
326.815
326.722
326.706
327.219
328.154
327.01
327.201
327.877
327.328
328.401
328.829
327.212
328.631
327.676
327.816
326.822
327.089
326.531
326.302
326.29
324.413
324.064
322.932
323.233
323.262
323.856
323.832
324.819
323.982
324.685
324.331
324.358
324.666
324.054
324.809
323.851
322.574
323.233
324.757
323.354
320.564
319.794
319.556
319.275
320.169
319.24
320.998
321.298
320.178
321.369
320.764
320.533
320.513
319.889
319.824
320.649
320.449
319.76
320.308
320.888
316.947
317.297
316.281
316.209
316.304
316.565
317.304
317.365
316.721
316.196
316.831
316.872
316.705
315.857
315.596
316.18
316.418
316.028
316.624
316.45
312.899
313.054
313.394
312.915
312.8
313.049
312.771
312.402
313.308
313.355
314.332
313.701
313.715
313.878
312.871
313.072
313.882
313.502
313.074
312.574
308.819
308.861
310.403
308.751
308.932
308.466
310.284
309.332
310.168
308.784
308.444
310.379
308.919
308.487
310.264
308.606
309.617
309.868
309.538
309.419
306.3
306.147
305.586
305.293
306.063
305.466
305.58
305.438
304.992
305.532
305.86
305.584
305.032
305.488
304.79
305.441
306.003
305.191
304.775
305.394
301.656
301.237
301.081
301.289
301.485
301.681
302.264
303.075
302.042
300.966
301.629
301.649
302.577
301.801
301.677
301.075
302.483
302.116
301.892
301.239
328.045
327.293
327.515
327.302
326.667
328.805
326.928
328.596
328.524
327.845
328.124
327.198
327.603
327.689
328.37
327.454
328.185
326.854
327.207
327.596
323.93
324.671
323.929
324.718
323.893
325.366
324.225
325.249
324.149
325.721
325.719
324.819
325.412
324.233
324.876
324.147
325.41
324.105
324.489
324.069
321.4
321.041
320.896
320.624
320.687
320.503
320.432
320.45
320.189
320.604
320.447
320.797
319.992
321.103
321.318
321.225
319.159
320.265
320.903
320.76
316.109
316.809
315.94
316.713
317.732
317.074
316.761
316.916
317.123
317.623
316.313
317.042
316.643
317.066
317.654
316.895
316.049
316.616
316.441
316.724
313.531
313.593
312.611
313.02
311.936
312.469
313.508
312.572
313.985
313.166
312.747
312.778
312.694
314.143
312.267
312.164
314.139
313.019
312.348
313.323
310.128
309.202
308.361
309.684
309.366
308.794
309.993
309.012
310.305
310.453
309.365
310.241
309.148
309.939
309.326
308.415
309.835
310.133
309.486
308.689
305.499
305.551
305.376
305.353
305.678
305.092
306.262
305.013
306.706
305.093
305.292
305.98
305.961
305.108
305.348
305.537
305.215
305.88
305.26
305.689
301.766
302.064
302.398
302.021
302.752
301.489
302.249
302.197
301.283
302.161
301.91
302.488
302.096
300.808
302.068
302.273
301.338
302.749
302.327
302.47
328.574
327.814
328.388
328.295
328.116
327.424
328.692
328.488
329.553
328.704
328.829
328.642
328.2
328.126
327.029
328.132
327.554
327.112
327.817
328.586
324.618
324.353
323.904
324.999
324.183
323.695
325.489
324.516
325.41
325.034
324.665
324.622
324.517
323.678
324.671
324.824
324.054
323.54
324.738
323.816
321.61
321.726
320.768
321.11
320.54
321.038
320.891
321.002
320.564
321.212
320.385
320.43
320.66
320.649
320.509
320.797
320.465
320.036
320.584
321.064
317.602
315.801
317.831
316.986
316.38
316.3
315.852
316.368
317.111
317.317
317.078
317.662
316.685
316.477
316.326
316.707
316.941
316.494
318.048
317.453
313.829
313.445
313.808
313.106
313.528
312.679
312.777
313.927
313.02
313.244
313.695
314.019
313.383
313.44
313.328
314.51
314.007
312.932
312.103
312.846
309.772
309.228
308.499
310.342
308.362
309.571
309.573
309.476
309.054
310.251
308.397
309.796
309.056
310.3
308.259
307.797
310.01
309.777
309.156
309.392
306.004
305.848
306.7
305.813
305.224
305.539
306.288
305.833
305.87
305.311
305.265
305.278
305.031
305.669
305.751
306.46
305.227
305.986
305.934
305.086
302.099
302.807
302.231
303
300.999
301.723
302.133
301.441
301.82
302.144
302.362
302.354
301.93
302.841
301.771
302.53
302.329
300.958
302.23
302.147
)
;

boundaryField
{
    hotSide
    {
        type            fixedGradient;
        gradient        nonuniform List<scalar> 
400
(
321.511
322.87
325.591
329.677
335.133
341.965
350.181
359.788
370.794
383.208
397.037
412.289
428.971
447.088
466.647
487.651
510.105
534.011
559.372
586.191
323.738
325.08
327.767
331.802
337.194
343.949
352.078
361.591
372.498
384.81
398.537
413.687
430.268
448.289
467.755
488.672
511.043
534.872
560.161
586.913
326.149
327.47
330.116
334.091
339.406
346.071
354.099
363.503
374.296
386.491
400.101
415.136
431.606
449.52
468.885
489.706
511.988
535.735
560.948
587.63
328.704
330
332.597
336.503
341.73
348.292
356.205
365.485
376.15
388.215
401.695
416.604
432.954
450.753
470.009
490.73
512.919
536.579
561.714
588.325
331.33
332.599
335.142
338.97
344.099
350.546
358.332
367.477
378.003
389.928
403.271
418.047
434.27
451.949
471.095
491.712
513.807
537.382
562.439
588.978
333.918
335.158
337.643
341.389
346.414
352.74
360.392
369.397
379.779
391.562
404.765
419.407
435.503
453.065
472.101
492.618
514.622
538.114
563.096
589.569
336.321
337.531
339.959
343.622
348.544
354.751
362.274
371.142
381.385
393.031
406.101
420.618
436.595
454.047
472.983
493.409
515.33
538.747
563.663
590.076
338.36
339.543
341.92
345.509
350.339
356.44
363.847
372.595
382.718
394.244
407.2
421.608
437.485
454.844
473.695
494.045
515.897
539.253
564.114
590.478
339.852
341.015
343.352
346.885
351.645
357.665
364.985
373.643
383.675
395.113
407.984
422.312
438.116
455.407
474.197
494.491
516.294
539.606
564.428
590.758
340.643
341.795
344.11
347.613
352.334
358.311
365.584
374.193
384.176
395.567
408.393
422.679
438.443
455.699
474.456
494.722
516.498
539.788
564.589
590.901
340.643
341.795
344.11
347.613
352.334
358.311
365.584
374.193
384.176
395.567
408.393
422.679
438.443
455.699
474.456
494.722
516.498
539.788
564.589
590.901
339.852
341.015
343.352
346.885
351.645
357.665
364.985
373.643
383.675
395.113
407.984
422.312
438.116
455.407
474.197
494.491
516.294
539.606
564.428
590.758
338.36
339.543
341.92
345.509
350.339
356.44
363.847
372.595
382.718
394.244
407.2
421.608
437.485
454.844
473.695
494.045
515.897
539.253
564.114
590.478
336.321
337.531
339.959
343.622
348.544
354.751
362.274
371.142
381.385
393.031
406.101
420.618
436.595
454.047
472.983
493.409
515.33
538.747
563.663
590.076
333.918
335.158
337.643
341.389
346.414
352.74
360.392
369.397
379.779
391.562
404.765
419.407
435.503
453.065
472.101
492.618
514.622
538.114
563.096
589.569
331.33
332.599
335.142
338.97
344.099
350.546
358.332
367.477
378.003
389.928
403.271
418.047
434.27
451.949
471.095
491.712
513.807
537.382
562.439
588.978
328.704
330
332.597
336.503
341.73
348.292
356.205
365.485
376.15
388.215
401.695
416.604
432.954
450.753
470.009
490.73
512.919
536.579
561.714
588.325
326.149
327.47
330.116
334.091
339.406
346.071
354.099
363.503
374.296
386.491
400.101
415.136
431.606
449.52
468.885
489.706
511.988
535.735
560.948
587.63
323.738
325.08
327.767
331.802
337.194
343.949
352.078
361.591
372.498
384.81
398.537
413.687
430.268
448.289
467.755
488.672
511.043
534.872
560.161
586.913
321.511
322.87
325.591
329.677
335.133
341.965
350.181
359.788
370.794
383.208
397.037
412.289
428.971
447.088
466.647
487.651
510.105
534.011
559.372
586.191
)
;
    }
    coldSide
    {
        type            mixed;
        refValue        uniform 300;
        refGradient     uniform 0;
        valueFraction   uniform 0.991591;
        source          uniform 0;
        value           nonuniform List<scalar> 
400
(
300.006
300.009
300.012
300.005
300.003
300.007
300.007
300.017
300.014
300.015
300.013
300.022
300.018
300.01
300.014
300.015
300.018
300.014
300.015
300.018
300.018
300.013
300.006
300.016
300.015
300.014
300.013
300.016
300.012
300.011
300.018
300.013
300.03
300.014
300.014
300.011
300.014
300.01
300.017
300.024