/*--------------------------------*- C++ -*----------------------------------*\
| =========                 |                                                 |
| \\      /  F ield         | OpenFOAM: The Open Source CFD Toolbox           |
|  \\    /   O peration     | Version:  2212                                  |
|   \\  /    A nd           | Website:  www.openfoam.com                      |
|    \\/     M anipulation  |                                                 |
\*---------------------------------------------------------------------------*/
FoamFile
{
    version     2.0;
    format      ascii;
    arch        "LSB;label=32;scalar=64";
    class       volScalarField;
    location    "0";
    object      T;
}
// * * * * * * * * * * * * * * * * * * * * * * * * * * * * * * * * * * * * * //

dimensions      [0 0 0 1 0 0 0];

internalField   nonuniform List<scalar> 
3200
(
335.159
334.237
333.68
333.385
333.791
334.148
334.645
335.21
335.504
335.709
335.618
335.108
334.527
333.834
333.004
332.338
331.65
331.352
331.634
332.233
330.55
329.782
329.321
329.055
329.41
329.704
330.136
330.659
330.89
331.075
331.015
330.571
330.093
329.504
328.803
328.247
327.642
327.408
327.66
328.157
325.909
325.262
324.909
324.675
324.966
325.199
325.577
326.03
326.231
326.382
326.348
325.986
325.583
325.097
324.515
324.06
323.546
323.356
323.571
323.953
321.218
320.707
320.465
320.246
320.489
320.686
320.977
321.345
321.516
321.645
321.642
321.373
321.021
320.635
320.126
319.806
319.376
319.223
319.398
319.684
316.538
316.137
315.974
315.768
315.977
316.14
316.348
316.643
316.762
316.88
316.885
316.695
316.394
316.106
315.716
315.486
315.133
315.033
315.157
315.353
311.833
311.541
311.424
311.288
311.432
311.564
311.709
311.906
311.989
312.083
312.105
311.963
311.736
311.526
311.265
311.108
310.86
310.774
310.87
311.002
307.139
306.935
306.86
306.787
306.876
306.968
307.032
307.158
307.214
307.25
307.267
307.181
307.064
306.936
306.787
306.686
306.54
306.466
306.536
306.612
302.393
302.329
302.304
302.275
302.305
302.339
302.346
302.401
302.432
302.435
302.434
302.411
302.36
302.321
302.274
302.231
302.195
302.167
302.19
302.211
335.41
334.404
333.957
333.66
333.955
334.332
335.009
335.535
335.912
336.223
336.101
335.761
335.136
334.245
333.287
332.485
331.947
331.631
331.85
332.423
330.801
329.929
329.554
329.283
329.551
329.844
330.448
330.899
331.25
331.522
331.407
331.132
330.623
329.83
329.022
328.354
327.913
327.665
327.844
328.321
326.149
325.405
325.092
324.843
325.089
325.315
325.844
326.206
326.533
326.764
326.662
326.442
326.029
325.361
324.69
324.154
323.759
323.581
323.736
324.096
321.45
320.84
320.594
320.37
320.58
320.789
321.183
321.479
321.77
321.944
321.863
321.69
321.374
320.848
320.297
319.873
319.532
319.395
319.509
319.79
316.725
316.25
316.076
315.874
316.023
316.223
316.511
316.727
316.96
317.103
317.033
316.898
316.67
316.288
315.867
315.52
315.253
315.146
315.222
315.458
311.961
311.639
311.522
311.371
311.459
311.613
311.823
311.941
312.148
312.237
312.189
312.078
311.935
311.678
311.387
311.124
310.927
310.854
310.909
311.066
307.182
306.991
306.924
306.839
306.876
306.981
307.124
307.15
307.305
307.356
307.319
307.253
307.176
307.025
306.859
306.696
306.576
306.52
306.569
306.649
302.413
302.342
302.328
302.29
302.294
302.34
302.404
302.402
302.447
302.462
302.461
302.431
302.402
302.356
302.303
302.244
302.208
302.187
302.206
302.229
335.654
334.873
334.326
334.195
334.36
334.794
335.527
336.159
336.644
336.903
336.868
336.506
335.872
334.953
333.88
332.969
332.415
331.963
332.241
332.722
330.99
330.338
329.878
329.724
329.884
330.276
330.906
331.453
331.848
332.086
332.064
331.768
331.228
330.44
329.525
328.771
328.324
327.93
328.201
328.6
326.275
325.754
325.366
325.212
325.36
325.691
326.242
326.681
327.015
327.203
327.223
326.974
326.512
325.885
325.109
324.484
324.143
323.785
324.039
324.357
321.523
321.127
320.78
320.662
320.777
321.098
321.53
321.884
322.166
322.3
322.343
322.14
321.741
321.25
320.626
320.132
319.889
319.545
319.78
320.046
316.776
316.461
316.212
316.098
316.168
316.468
316.78
317.055
317.269
317.393
317.415
317.259
316.936
316.6
316.116
315.726
315.532
315.258
315.454
315.674
311.987
311.771
311.581
311.518
311.564
311.81
312.003
312.207
312.357
312.455
312.475
312.36
312.128
311.919
311.544
311.266
311.129
310.923
311.09
311.25
307.179
307.079
306.958
306.931
306.949
307.119
307.218
307.318
307.418
307.503
307.521
307.441
307.312
307.192
306.945
306.781
306.7
306.569
306.678
306.777
302.397
302.382
302.336
302.331
302.331
302.395
302.419
302.456
302.488
302.523
302.52
302.487
302.454
302.413
302.331
302.275
302.258
302.207
302.231
302.274
336.294
335.516
334.926
334.705
335.018
335.593
336.224
336.931
337.495
337.8
337.782
337.514
336.765
335.79
334.717
333.708
332.935
332.651
332.757
333.215
331.565
330.928
330.391
330.198
330.464
330.943
331.475
332.109
332.609
332.857
332.843
332.628
332.021
331.162
330.26
329.403
328.77
328.55
328.634
329.025
326.778
326.266
325.807
325.639
325.867
326.253
326.68
327.237
327.657
327.875
327.895
327.702
327.196
326.494
325.741
325.025
324.52
324.321
324.414
324.736
321.965
321.547
321.162
321.039
321.218
321.517
321.863
322.319
322.687
322.853
322.897
322.719
322.319
321.756
321.167
320.559
320.206
319.992
320.099
320.337
317.107
316.793
316.495
316.394
316.542
316.77
317.025
317.383
317.707
317.812
317.857
317.751
317.385
316.978
316.515
316.061
315.797
315.621
315.702
315.889
312.241
312.013
311.807
311.714
311.833
312.01
312.181
312.437
312.696
312.752
312.793
312.736
312.444
312.164
311.809
311.509
311.328
311.195
311.25
311.398
307.359
307.199
307.092
307.026
307.107
307.224
307.314
307.475
307.639
307.659
307.686
307.663
307.493
307.315
307.088
306.925
306.836
306.725
306.784
306.873
302.477
302.416
302.378
302.354
302.374
302.421
302.452
302.51
302.573
302.574
302.582
302.559
302.518
302.457
302.366
302.326
302.305
302.249
302.269
302.315
337.05
336.28
335.655
335.505
335.909
336.471
337.179
337.934
338.306
338.694
338.641
338.51
337.818
336.824
335.671
334.52
333.848
333.493
333.535
334.055
332.213
331.59
331.047
330.879
331.219
331.699
332.323
332.962
333.288
333.637
333.606
333.494
332.93
332.097
331.068
330.142
329.561
329.27
329.31
329.766
327.332
326.831
326.371
326.189
326.495
326.889
327.426
327.922
328.246
328.533
328.508
328.426
327.965
327.28
326.406
325.641
325.176
324.937
324.976
325.352
322.414
322.006
321.657
321.458
321.729
322.034
322.485
322.861
323.162
323.392
323.376
323.317
322.951
322.403
321.691
321.073
320.721
320.502
320.536
320.876
317.482
317.135
316.896
316.727
316.941
317.169
317.5
317.791
318.052
318.216
318.213
318.176
317.907
317.479
316.926
316.445
316.18
315.994
316.047
316.322
312.501
312.26
312.104
311.972
312.116
312.273
312.518
312.736
312.907
313.029
313.035
312.994
312.816
312.536
312.104
311.8
311.604
311.45
311.508
311.693
307.526
307.372
307.26
307.202
307.281
307.388
307.527
307.66
307.743
307.837
307.86
307.815
307.706
307.552
307.275
307.108
306.975
306.895
306.92
307.034
302.526
302.48
302.43
302.416
302.439
302.475
302.527
302.576
302.602
302.637
302.632
302.623
302.572
302.532
302.438
302.39
302.337
302.313
302.328
302.363
337.764
337.052
336.499
336.474
336.747
337.394
338.21
338.832
339.366
339.832
339.853
339.554
338.999
337.901
336.786
335.749
334.923
334.495
334.521
334.974
332.828
332.254
331.748
331.725
331.967
332.515
333.207
333.729
334.203
334.614
334.656
334.4
333.969
333.015
332.066
331.154
330.496
330.119
330.171
330.572
327.852
327.398
326.952
326.932
327.132
327.591
328.161
328.586
329.011
329.361
329.409
329.208
328.864
328.028
327.249
326.489
325.957
325.648
325.708
326.052
322.829
322.5
322.105
322.089
322.247
322.641
323.094
323.429
323.776
324.097
324.117
323.966
323.692
323.003
322.362
321.763
321.338
321.109
321.167
321.456
317.771
317.546
317.228
317.198
317.326
317.646
317.992
318.249
318.506
318.787
318.788
318.692
318.474
317.951
317.439
317.004
316.667
316.5
316.536
316.781
312.696
312.586
312.33
312.301
312.387
312.621
312.869
313.068
313.219
313.454
313.432
313.377
313.222
312.859
312.465
312.176
311.944
311.839
311.866
312.03
307.626
307.585
307.417
307.396
307.45
307.593
307.748
307.856
307.927
308.093
308.084
308.041
307.95
307.732
307.494
307.312
307.198
307.113
307.161
307.236
302.556
302.545
302.494
302.497
302.499
302.547
302.604
302.629
302.673
302.714
302.716
302.695
302.667
302.584
302.514
302.458
302.417
302.382
302.407
302.429
338.81
338.132
337.553
337.529
337.807
338.461
339.158
339.762
340.443
340.927
341.045
340.762
340.135
339.054
337.856
336.761
336.067
335.59
335.494
336.018
333.738
333.192
332.656
332.639
332.897
333.457
334.049
334.56
335.144
335.564
335.688
335.451
334.927
334.027
332.994
332.045
331.482
331.079
331.019
331.482
328.629
328.206
327.723
327.727
327.909
328.403
328.876
329.285
329.807
330.168
330.304
330.084
329.661
328.937
328.046
327.262
326.777
326.462
326.427
326.817
323.474
323.157
322.738
322.723
322.898
323.291
323.671
323.99
324.434
324.722
324.87
324.671
324.36
323.738
323.022
322.414
321.993
321.759
321.75
322.04
318.283
318.049
317.713
317.685
317.857
318.176
318.436
318.708
319.023
319.257
319.378
319.215
319
318.517
317.934
317.506
317.156
316.999
316.995
317.2
313.078
312.899
312.659
312.645
312.776
313.02
313.168
313.389
313.613
313.78
313.855
313.748
313.604
313.272
312.819
312.553
312.296
312.198
312.187
312.319
307.834
307.759
307.6
307.602
307.684
307.846
307.913
308.051
308.187
308.291
308.318
308.27
308.181
307.978
307.698
307.54
307.386
307.334
307.361
307.417
302.621
302.607
302.55
302.557
302.565
302.635
302.639
302.697
302.747
302.783
302.789
302.774
302.739
302.669
302.575
302.525
302.479
302.459
302.48
302.493
339.865
339.259
338.776
338.786
338.984
339.564
340.093
340.974
341.625
342.061
342.225
341.855
341.238
340.185
339.055
338.026
337.146
336.672
336.822
336.995
334.651
334.172
333.751
333.747
333.918
334.432
334.858
335.619
336.168
336.556
336.712
336.38
335.876
334.976
334.028
333.151
332.408
332.044
332.171
332.321
329.37
329.02
328.685
328.654
328.792
329.229
329.581
330.213
330.667
331.001
331.152
330.894
330.467
329.73
328.919
328.195
327.583
327.304
327.383
327.534
324.065
323.82
323.543
323.489
323.607
323.953
324.267
324.756
325.108
325.433
325.543
325.336
324.998
324.39
323.737
323.158
322.671
322.479
322.518
322.625
318.73
318.558
318.355
318.301
318.38
318.657
318.916
319.286
319.557
319.822
319.885
319.747
319.492
319.035
318.493
318.063
317.691
317.551
317.589
317.663
313.375
313.284
313.149
313.113
313.15
313.342
313.547
313.788
313.984
314.176
314.213
314.144
313.946
313.644
313.254
312.936
312.659
312.58
312.63
312.672
308.038
307.996
307.902
307.896
307.902
308.018
308.148
308.269
308.409
308.529
308.527
308.523
308.373
308.24
307.981
307.781
307.604
307.573
307.595
307.631
302.692
302.689
302.652
302.645
302.648
302.688
302.724
302.772
302.817
302.858
302.857
302.864
302.82
302.767
302.681
302.612
302.548
302.538
302.548
302.561
340.964
340.382
339.973
340.052
340.2
340.772
341.242
342.067
342.802
343.165
343.318
342.923
342.225
341.184
340.181
339.149
338.456
337.987
337.968
338.129
335.626
335.162
334.772
334.864
334.992
335.447
335.877
336.57
337.216
337.533
337.64
337.299
336.727
335.827
335.024
334.131
333.547
333.141
333.179
333.308
330.235
329.845
329.535
329.591
329.721
330.091
330.443
331.02
331.573
331.865
331.924
331.624
331.153
330.405
329.746
329.015
328.525
328.224
328.25
328.359
324.808
324.488
324.24
324.277
324.39
324.692
324.956
325.44
325.896
326.127
326.189
325.928
325.527
324.952
324.428
323.843
323.437
323.209
323.223
323.328
319.342
319.094
318.927
318.915
319.024
319.244
319.45
319.819
320.178
320.327
320.421
320.206
319.901
319.467
319.065
318.617
318.273
318.136
318.133
318.22
313.844
313.663
313.562
313.535
313.597
313.77
313.919
314.177
314.423
314.53
314.619
314.451
314.241
313.919
313.664
313.358
313.068
312.995
313.005
313.045
308.329
308.227
308.159
308.138
308.161
308.273
308.363
308.514
308.659
308.743
308.784
308.694
308.551
308.364
308.222
308.042
307.864
307.813
307.836
307.85
302.793
302.764
302.731
302.727
302.732
302.772
302.8
302.854
302.898
302.934
302.949
302.919
302.871
302.806
302.753
302.7
302.64
302.623
302.635
302.627
342.106
341.593
341.208
341.076
341.223
341.87
342.407
343.163
343.845
344.301
344.411
344.016
343.265
342.308
341.303
340.299
339.474
339.147
339.225
339.463
336.615
336.186
335.86
335.743
335.875
336.421
336.878
337.51
338.115
338.496
338.621
338.276
337.619
336.822
335.975
335.143
334.436
334.169
334.245
334.475
331.078
330.735
330.441
330.343
330.462
330.915
331.289
331.805
332.329
332.639
332.79
332.468
331.918
331.272
330.547
329.891
329.316
329.092
329.174
329.364
325.483
325.238
324.978
324.879
324.987
325.369
325.652
326.072
326.523
326.762
326.922
326.628
326.182
325.666
325.088
324.541
324.109
323.908
323.976
324.157
319.846
319.695
319.479
319.369
319.482
319.79
319.99
320.298
320.689
320.85
321.008
320.75
320.41
320.008
319.58
319.145
318.814
318.67
318.718
318.836
314.181
314.102
313.955
313.861
313.947
314.182
314.314
314.523
314.787
314.914
315.036
314.838
314.612
314.324
314.006
313.719
313.47
313.393
313.405
313.47
308.523
308.478
308.377
308.336
308.396
308.54
308.599
308.744
308.881
308.974
309.052
308.926
308.789
308.611
308.43
308.25
308.103
308.065
308.073
308.091
302.856
302.841
302.811
302.79
302.813
302.864
302.892
302.928
302.978
303.006
303.043
303.003
302.946
302.887
302.824
302.765
302.723
302.705
302.718
302.706
343.324
342.773
342.438
342.311
342.471
342.857
343.483
344.174
344.859
345.187
345.375
345.02
344.355
343.409
342.402
341.388
340.681
340.393
340.391
340.601
337.673
337.235
336.916
336.814
336.939
337.28
337.815
338.395
338.988
339.283
339.45
339.147
338.578
337.78
336.967
336.103
335.498
335.261
335.279
335.461
331.964
331.625
331.344
331.257
331.364
331.649
332.083
332.567
333.066
333.299
333.471
333.229
332.751
332.076
331.433
330.739
330.196
330.014
330.026
330.203
326.224
325.961
325.727
325.65
325.731
325.956
326.314
326.707
327.094
327.279
327.437
327.224
326.877
326.302
325.825
325.275
324.813
324.678
324.702
324.832
320.449
320.265
320.08
319.999
320.07
320.23
320.51
320.823
321.109
321.248
321.38
321.199
320.91
320.492
320.143
319.733
319.37
319.245
319.294
319.382
314.65
314.513
314.363
314.32
314.37
314.456
314.668
314.913
315.077
315.189
315.289
315.166
314.948
314.664
314.421
314.132
313.882
313.765
313.828
313.889
308.817
308.721
308.624
308.612
308.636
308.682
308.823
308.984
309.06
309.135
309.187
309.097
308.998
308.81
308.676
308.489
308.363
308.287
308.331
308.354
302.957
302.923
302.889
302.888
302.897
302.906
302.954
303.014
303.039
303.055
303.086
303.048
303.022
302.954
302.901
302.842
302.802
302.778
302.798
302.797
344.629
344.115
343.645
343.515
343.713
343.943
344.45
344.994
345.701
346.015
346.258
346.005
345.284
344.362
343.476
342.501
341.847
341.546
341.633
341.81
338.841
338.395
337.981
337.873
338.041
338.212
338.663
339.128
339.729
340.005
340.207
339.977
339.406
338.613
337.919
337.068
336.485
336.258
336.342
336.491
332.959
332.616
332.242
332.162
332.271
332.425
332.799
333.201
333.704
333.918
334.1
333.877
333.449
332.811
332.237
331.535
331.023
330.854
330.947
331.061
327.049
326.765
326.465
326.386
326.456
326.58
326.89
327.223
327.651
327.785
327.961
327.755
327.422
326.924
326.479
325.915
325.466
325.363
325.442
325.531
321.096
320.866
320.627
320.589
320.611
320.716
320.95
321.201
321.568
321.624
321.788
321.622
321.346
320.997
320.659
320.211
319.856
319.794
319.857
319.934
315.104
314.956
314.765
314.74
314.748
314.807
314.975
315.163
315.437
315.465
315.581
315.493
315.266
315.021
314.81
314.468
314.224
314.185
314.212
314.29
309.092
309.015
308.874
308.851
308.868
308.907
309.004
309.097
309.298
309.287
309.356
309.329
309.168
309.036
308.911
308.686
308.551
308.534
308.549
308.594
303.051
303.023
302.973
302.967
302.977
302.986
303.013
303.046
303.114
303.111
303.127
303.132
303.068
303.027
302.989
302.906
302.861
302.862
302.869
302.893
345.795
345.297
344.823
344.699
344.918
345.062
345.564
346.117
346.607
346.91
347.008
346.882
346.173
345.412
344.542
343.777
343.115
342.801
342.765
342.859
339.85
339.446
339.006
338.908
339.09
339.202
339.625
340.089
340.518
340.76
340.89
340.774
340.167
339.566
338.816
338.174
337.617
337.352
337.347
337.423
333.838
333.515
333.125
333.034
333.194
333.288
333.618
334.01
334.391
334.555
334.689
334.607
334.101
333.616
332.999
332.471
331.999
331.783
331.804
331.85
327.751
327.516
327.167
327.097
327.234
327.322
327.564
327.897
328.214
328.334
328.441
328.38
327.968
327.58
327.085
326.695
326.296
326.149
326.147
326.193
321.661
321.457
321.18
321.132
321.262
321.308
321.47
321.755
322.006
322.073
322.173
322.118
321.81
321.487
321.123
320.83
320.521
320.445
320.414
320.471
315.507
315.367
315.174
315.116
315.25
315.251
315.359
315.578
315.755
315.785
315.869
315.837
315.619
315.376
315.127
314.906
314.681
314.659
314.624
314.661
309.315
309.235
309.13
309.097
309.181
309.175
309.215
309.371
309.482
309.48
309.555
309.513
309.384
309.248
309.097
308.963
308.819
308.827
308.791
308.805
303.115
303.093
303.067
303.049
303.079
303.086
303.087
303.139
303.185
303.174
303.197
303.191
303.145
303.104
303.053
303.001
302.954
302.97
302.95
302.954
347.005
346.648
346.029
345.979
346.038
346.168
346.495
347.104
347.451
347.731
347.786
347.595
347.048
346.313
345.56
344.899
344.257
344.014
344
344.129
340.888
340.629
340.059
339.998
340.042
340.158
340.423
340.971
341.254
341.496
341.567
341.406
340.95
340.343
339.695
339.169
338.607
338.439
338.436
338.545
334.715
334.489
333.996
333.981
334
334.076
334.312
334.787
335.014
335.204
335.27
335.162
334.778
334.276
333.762
333.339
332.841
332.716
332.73
332.834
328.497
328.269
327.899
327.878
327.888
327.953
328.148
328.55
328.708
328.858
328.922
328.858
328.544
328.136
327.729
327.397
326.979
326.898
326.926
327.002
322.222
322.026
321.755
321.751
321.737
321.775
321.939
322.269
322.369
322.488
322.529
322.508
322.26
321.953
321.626
321.379
321.048
321.011
321.041
321.08
315.915
315.762
315.572
315.573
315.557
315.592
315.715
315.945
316.005
316.081
316.121
316.094
315.934
315.716
315.491
315.318
315.075
315.067
315.074
315.102
309.584
309.483
309.38
309.36
309.337
309.361
309.443
309.586
309.61
309.668
309.7
309.656
309.59
309.46
309.332
309.207
309.077
309.071
309.067
309.086
303.208
303.175
303.151
303.14
303.126
303.143
303.161
303.225
303.222
303.24
303.251
303.228
303.215
303.171
303.132
303.09
303.047
303.049
303.034
303.045
348.458
347.929
347.351
347.1
347.142
347.34
347.606
348.005
348.22
348.544
348.544
348.323
347.842
347.205
346.512
345.921
345.215
345.081
345.049
345.306
342.175
341.729
341.221
341.016
341.005
341.178
341.415
341.785
341.943
342.209
342.221
342.051
341.657
341.109
340.549
340.092
339.468
339.359
339.342
339.583
335.809
335.431
335.004
334.845
334.811
334.937
335.144
335.498
335.598
335.833
335.853
335.714
335.402
334.923
334.475
334.115
333.606
333.531
333.522
333.721
329.372
329.057
328.728
328.587
328.591
328.652
328.844
329.144
329.188
329.385
329.42
329.312
329.059
328.692
328.334
328.049
327.637
327.569
327.566
327.731
322.912
322.663
322.399
322.284
322.289
322.331
322.483
322.727
322.735
322.902
322.929
322.829
322.663
322.397
322.126
321.888
321.583
321.546
321.535
321.647
316.418
316.216
316.013
315.944
315.939
315.98
316.082
316.262
316.251
316.383
316.406
316.318
316.234
316.057
315.857
315.675
315.457
315.453
315.446
315.53
309.886
309.75
309.616
309.579
309.572
309.606
309.675
309.784
309.748
309.851
309.866
309.81
309.762
309.672
309.533
309.412
309.294
309.312
309.302
309.348
303.322
303.271
303.223
303.207
303.211
303.219
303.25
303.284
303.27
303.304
303.3
303.291
303.28
303.25
303.194
303.156
303.12
303.114
303.121
303.136
349.724
349.132
348.509
348.323
348.285
348.52
348.607
348.941
349.177
349.411
349.371
349.092
348.705
348.115
347.565
346.956
346.415
346.283
346.295
346.565
343.274
342.779
342.237
342.079
342.042
342.228
342.292
342.591
342.783
342.986
342.959
342.725
342.417
341.909
341.483
340.941
340.514
340.421
340.452
340.666
336.75
336.315
335.854
335.754
335.695
335.838
335.902
336.139
336.303
336.506
336.456
336.267
336.047
335.607
335.283
334.821
334.511
334.426
334.463
334.624
330.158
329.787
329.416
329.352
329.275
329.371
329.454
329.638
329.758
329.947
329.9
329.766
329.591
329.251
328.973
328.594
328.384
328.309
328.333
328.481
323.527
323.215
322.928
322.915
322.806
322.905
322.943
323.093
323.205
323.354
323.302
323.19
323.079
322.841
322.606
322.316
322.182
322.092
322.104
322.239
316.873
316.616
316.381
316.413
316.314
316.391
316.415
316.513
316.606
316.741
316.661
316.571
316.517
316.371
316.218
315.981
315.897
315.826
315.853
315.932
310.147
309.967
309.827
309.867
309.809
309.858
309.855
309.928
309.99
310.076
310.003
309.964
309.921
309.854
309.773
309.622
309.569
309.522
309.538
309.586
303.414
303.333
303.293
303.311
303.287
303.311
303.306
303.323
303.35
303.386
303.356
303.345
303.33
303.307
303.29
303.234
303.209
303.195
303.205
303.217
350.872
350.356
349.85
349.564
349.451
349.633
349.612
349.916
350.05
350.18
350.133
349.75
349.558
349.107
348.558
348.015
347.666
347.471
347.517
347.823
344.29
343.852
343.403
343.154
343.045
343.21
343.147
343.416
343.558
343.66
343.643
343.311
343.152
342.784
342.359
341.877
341.617
341.458
341.49
341.816
337.63
337.262
336.857
336.643
336.552
336.697
336.628
336.86
336.968
337.059
337.057
336.813
336.656
336.343
336.035
335.63
335.428
335.302
335.335
335.632
330.917
330.591
330.242
330.08
330
330.103
330.065
330.235
330.336
330.404
330.402
330.232
330.106
329.823
329.615
329.281
329.128
329.017
329.078
329.309
324.128
323.857
323.578
323.48
323.392
323.488
323.443
323.573
323.672
323.708
323.694
323.59
323.496
323.251
323.112
322.855
322.771
322.643
322.725
322.898
317.315
317.064
316.879
316.813
316.744
316.797
316.777
316.87
316.958
316.967
316.946
316.869
316.81
316.627
316.53
316.393
316.321
316.229
316.281
316.407
310.426
310.251
310.158
310.109
310.059
310.099
310.089
310.137
310.222
310.217
310.184
310.153
310.095
309.983
309.931
309.872
309.817
309.763
309.801
309.889
303.504
303.432
303.407
303.383
303.383
303.391
303.392
303.393
303.44
303.429
303.415
303.404
303.386
303.347
303.321
303.314
303.295
303.276
303.289
303.321
352.158
351.571
351.051
350.629
350.437
350.583
350.725
350.854
350.97
350.991
350.969
350.718
350.36
349.913
349.412
349.041
348.7
348.552
348.691
349.125
345.404
344.888
344.439
344.048
343.908
344.016
344.133
344.251
344.37
344.39
344.369
344.167
343.855
343.482
343.085
342.779
342.51
342.369
342.517
342.918
338.561
338.116
337.751
337.393
337.287
337.379
337.467
337.565
337.67
337.679
337.687
337.525
337.247
336.947
336.62
336.399
336.178
336.09
336.195
336.551
331.645
331.28
330.988
330.683
330.613
330.703
330.746
330.812
330.901
330.915
330.911
330.82
330.582
330.328
330.081
329.915
329.756
329.68
329.78
330.063
324.686
324.393
324.164
323.925
323.87
323.971
323.968
323.995
324.095
324.102
324.108
324.046
323.847
323.65
323.474
323.37
323.242
323.188
323.264
323.496
317.691
317.458
317.284
317.121
317.086
317.173
317.148
317.144
317.273
317.247
317.275
317.229
317.066
316.924
316.824
316.771
316.662
316.625
316.667
316.832
310.65
310.51
310.388
310.3
310.283
310.332
310.314
310.288
310.397
310.37
310.411
310.358
310.244
310.17
310.129
310.113
310.017
310.006
310.029
310.117
303.573
303.529
303.486
303.458
303.451
303.46
303.456
303.446
303.484
303.472
303.491
303.483
303.436
303.42
303.393
303.392
303.361
303.361
303.362
303.389
353.211
352.552
352.127
351.837
351.553
351.485
351.538
351.6
351.734
351.789
351.663
351.424
351.196
350.681
350.372
349.876
349.738
349.68
349.786
350.216
346.305
345.735
345.369
345.129
344.857
344.797
344.834
344.893
345.022
345.057
344.975
344.779
344.604
344.164
343.929
343.508
343.394
343.37
343.454
343.848
339.33
338.851
338.519
338.315
338.056
338.019
338.057
338.106
338.218
338.243
338.22
338.049
337.902
337.563
337.34
337.003
336.912
336.907
337.007
337.331
332.296
331.887
331.602
331.429
331.195
331.178
331.236
331.247
331.354
331.382
331.388
331.243
331.121
330.859
330.661
330.414
330.342
330.358
330.438
330.697
325.187
324.853
324.651
324.507
324.297
324.309
324.341
324.362
324.451
324.464
324.492
324.369
324.289
324.075
323.9
323.75
323.697
323.706
323.774
323.967
318.023
317.797
317.648
317.527
317.392
317.406
317.408
317.424
317.515
317.513
317.525
317.467
317.399
317.236
317.094
317.01
316.978
316.979
317.035
317.184
310.839
310.701
310.606
310.521
310.462
310.483
310.46
310.475
310.543
310.539
310.541
310.501
310.467
310.359
310.269
310.228
310.225
310.214
310.25
310.34
303.641
303.584
303.55
303.529
303.515
303.516
303.498
303.507
303.536
303.531
303.539
303.531
303.511
303.476
303.453
303.429
303.439
303.424
303.445
303.466
353.909
353.36
352.826
352.573
352.252
352.121
352.115
352.08
352.483
352.355
352.305
352.036
351.75
351.259
350.869
350.525
350.461
350.52
350.65
351.028
346.858
346.396
345.945
345.728
345.447
345.338
345.335
345.295
345.658
345.555
345.524
345.266
345.071
344.644
344.313
344.021
343.978
344.037
344.173
344.531
339.76
339.366
338.992
338.814
338.562
338.484
338.471
338.446
338.76
338.649
338.662
338.42
338.302
337.942
337.668
337.4
337.37
337.447
337.564
337.902
332.613
332.279
331.984
331.83
331.628
331.559
331.553
331.523
331.803
331.699
331.718
331.515
331.446
331.15
330.94
330.704
330.7
330.76
330.863
331.157
325.425
325.149
324.938
324.801
324.635
324.595
324.6
324.543
324.785
324.721
324.712
324.566
324.516
324.299
324.14
323.931
323.951
323.989
324.097
324.327
318.197
317.991
317.839
317.748
317.612
317.611
317.605
317.555
317.748
317.672
317.695
317.571
317.541
317.374
317.284
317.11
317.148
317.175
317.247
317.425
310.955
310.809
310.728
310.67
310.573
310.612
310.579
310.544
310.655
310.616
310.636
310.562
310.536
310.43
310.389
310.275
310.311
310.313
310.367
310.481
303.683
303.614
303.6
303.586
303.542
303.561
303.546
303.53
303.572
303.563
303.56
303.555
303.534
303.499
303.484
303.439
303.457
303.455
303.473
303.51
)
;

boundaryField
{
    hotSide
    {
        type            fixedGradient;
        gradient        nonuniform List<scalar> 
400
(
363.763
365.13
368.583
374.056
381.33
390.091
400.001
410.757
422.105
433.849
445.844
457.988
470.214
482.487
494.792
507.137
519.543
532.038
544.648
557.39
351.051
352.686
356.553
362.572
370.477
379.894
390.437
401.767
413.611
425.765
438.081
450.459
462.84
475.193
487.518
499.831
512.167
524.569
537.075
549.711
344.127
346.249
350.571
357.003
365.278
375.02
385.843
397.403
409.423
421.692
434.062
446.433
458.749
470.986
483.15
495.267
507.38
519.54
531.792
544.17
342.585
345.4
350.229
356.978
365.41
375.2
385.998
397.483
409.386
421.497
433.665
445.791
457.822
469.738
481.553
493.299
505.026
516.788
528.635
540.605
344.907
348.54
353.952
361.041
369.603
379.364
390.023
401.289
412.91
424.683
436.459
448.144
459.691
471.09
482.367
493.563
504.736
515.944
527.241
538.672
349.358
353.869
359.952
367.495
376.306
386.143
396.733
407.809
419.129
430.499
441.777
452.882
463.784
474.495
485.057
495.534
505.994
516.508
527.136
537.928
354.485
359.887
366.722
374.857
384.098
394.205
404.907
415.935
427.042
438.035
448.782
459.223
469.359
479.24
488.944
498.563
508.19
517.908
527.788
537.885
359.135
365.4
373.026
381.866
391.708
402.292
413.322
424.496
435.537
446.236
456.467
466.203
475.495
484.452
493.204
501.887
510.62
519.506
528.624
538.03
362.368
369.393
377.774
387.349
397.889
409.101
420.643
432.15
443.286
453.8
463.568
472.606
481.041
489.058
496.859
504.625
512.507
520.62
529.048
537.846
363.41
370.992
379.966
390.168
401.354
413.202
425.315
437.254
448.601
459.044
468.453
476.899
484.593
491.81
498.818
505.843
513.057
520.581
528.5
536.864
361.702
369.525
378.793
389.341
400.92
413.186
425.708
437.991
449.55
460.023
469.273
477.405
484.697
491.484
498.076
504.723
511.607
518.855
526.548
534.733
357.007
364.683
373.851
384.345
395.91
408.198
420.771
433.128
444.783
455.37
464.747
473.014
480.439
487.353
494.066
500.828
507.824
515.185
522.995
531.302
349.503
356.65
365.337
375.393
386.564
398.505
410.799
422.987
434.635
445.419
455.195
464.015
472.077
479.644
486.985
494.328
501.855
509.7
517.954
526.674
339.802
346.122
354.058
363.442
374.021
385.462
397.374
409.349
421.014
432.088
442.424
452.017
460.979
469.492
477.76
485.979
494.316
502.906
511.847
521.204
328.922
334.23
341.291
349.948
359.946
370.952
382.587
394.47
406.264
417.711
428.656
439.052
448.945
458.448
467.709
476.887
486.134
495.582
505.331
515.453
318.267
322.486
328.667
336.669
346.22
356.961
368.495
380.44
392.465
404.319
415.84
426.953
437.665
448.043
458.195
468.255
478.362
488.645
499.208
510.124
309.661
312.812
318.181
325.635
334.87
345.476
357.013
369.079
381.338
393.54
405.519
417.19
428.535
439.595
450.456
461.232
472.058
483.063
494.357
506.007
305.271
307.489
312.132
319.078
327.988
338.405
349.854
361.915
374.252
386.621
398.856
410.867
422.625
434.154
445.521
456.829
468.206
479.782
491.668
503.926
307.011
308.545
312.541
318.892
327.267
337.212
348.262
360.006
372.122
384.372
396.595
408.696
420.637
432.426
444.117
455.795
467.572
479.569
491.884
504.572
315.486
316.612
320.034
325.664
333.232
342.356
352.632
363.698
375.254
387.078
399.01
410.951
422.853
434.71
446.556
458.454
470.492
482.761
495.337
508.261
)
;
    }
    coldSide
    {
        type            mixed;
        refValue        uniform 300;
        refGradient     uniform 0;
        valueFraction   uniform 0.991591;
        source          uniform 0;
        value           nonuniform List<scalar> 
400
(
300.02
300.02
300.02
300.021
300.021
300.021
300.022
300.023
300.023
300.024
300.025
300.026
300.026
300.027
300.028
300.029
300.029
300.03
300.031
300.031
300.02
300.02
300.02
300.02
300.021
300.021
300.022
300.023
300.023
300.024
300.025
300.025
300.026
300.027
300.028
300.028
300.029
300.03
300.03
300.03
300.019
300.02