/*--------------------------------*- C++ -*----------------------------------*\
| =========                 |                                                 |
| \\      /  F ield         | OpenFOAM: The Open Source CFD Toolbox           |
|  \\    /   O peration     | Version:  2212                                  |
|   \\  /    A nd           | Website:  www.openfoam.com                      |
|    \\/     M anipulation  |                                                 |
\*---------------------------------------------------------------------------*/
FoamFile
{
    version     2.0;
    format      ascii;
    arch        "LSB;label=32;scalar=64";
    class       volScalarField;
    location    "0";
    object      relativeErrorField;
}
// * * * * * * * * * * * * * * * * * * * * * * * * * * * * * * * * * * * * * //

dimensions      [0 0 0 1 0 0 0];

internalField   nonuniform List<scalar> 
3200
(
0.0186358
0.0188279
0.0196871
0.0204238
0.0211591
0.0223103
0.0234762
0.0243168
0.024831
0.0254352
0.0253373
0.0249548
0.0243645
0.0233998
0.022696
0.0217148
0.0203871
0.0196893
0.0192404
0.01877
0.0161928
0.0163198
0.0170619
0.0178848
0.0186373
0.0194034
0.0207006
0.0209481
0.0216663
0.0219895
0.0222452
0.0219419
0.0212041
0.0204166
0.0197539
0.0188886
0.0178664
0.0173736
0.0166942
0.0164788
0.0139601
0.0142368
0.0145332
0.015166
0.0158994
0.0167002
0.0175066
0.0181899
0.0185131
0.0190477
0.0189151
0.0188236
0.0181265
0.0174816
0.0169141
0.0158622
0.0154273
0.0147375
0.0141719
0.0138008
0.0111918
0.0115231
0.0120994
0.0124254
0.0132022
0.0135414
0.0143887
0.0149724
0.0152976
0.015586
0.0154016
0.0152802
0.0149505
0.0143996
0.0136998
0.0131035
0.012705
0.0121457
0.011448
0.0114118
0.00905204
0.00894878
0.00941047
0.00954937
0.0103246
0.0107378
0.011346
0.0117367
0.0121127
0.0119656
0.0124964
0.0120064
0.0117414
0.011308
0.0109466
0.0102952
0.0096697
0.00962902
0.00919377
0.00898934
0.00642146
0.00662375
0.00688472
0.00694899
0.00751528
0.007984
0.00817578
0.00853972
0.00870542
0.0089374
0.0087329
0.00878061
0.00849607
0.00808014
0.00779755
0.00738986
0.00718026
0.00656644
0.00644982
0.00646881
0.00392298
0.00409572
0.00403741
0.00417253
0.00475184
0.00468875
0.00479729
0.00531093
0.0052329
0.00523015
0.00523003
0.0053529
0.00524132
0.0048499
0.00471473
0.00461125
0.0046157
0.00417802
0.0040017
0.00394675
0.00128725
0.00112007
0.00145714
0.00149097
0.00157653
0.00136163
0.00160864
0.00174006
0.00168136
0.0016658
0.00175738
0.0019309
0.00172599
0.00165471
0.00173645
0.00134813
0.0014634
0.00152983
0.0013432
0.0014061
0.0168915
0.0171797
0.0178935
0.0186052
0.0195333
0.0202621
0.0214881
0.0224611
0.0228129
0.0233191
0.0232858
0.0231174
0.0222125
0.0216999
0.0206203
0.0196891
0.0186047
0.0179278
0.0174322
0.0169123
0.0147125
0.0152526
0.0154268
0.0165989
0.0171605
0.0180723
0.0187797
0.0197198
0.0199664
0.020683
0.0204982
0.020237
0.0196666
0.0189428
0.0181106
0.0171875
0.0162718
0.0156741
0.0152357
0.0149884
0.012666
0.012966
0.0132611
0.0140041
0.0148215
0.0155473
0.016048
0.0168616
0.0172995
0.0175675
0.0173853
0.0173011
0.0166535
0.0162564
0.015416
0.0147303
0.0137238
0.0133457
0.0130639
0.0128914
0.0106183
0.0107035
0.011038
0.0114856
0.0122396
0.0126696
0.0133099
0.0139173
0.0142572
0.014337
0.0143825
0.0140923
0.0140763
0.0134938
0.0128309
0.0121118
0.0113887
0.0110117
0.0107533
0.0103912
0.00826168
0.0085214
0.00863014
0.00907049
0.00946665
0.0100225
0.0105952
0.0109765
0.0110865
0.0112416
0.011316
0.0112959
0.0107214
0.0105925
0.0100938
0.00946445
0.00892759
0.00885391
0.00839848
0.00828265
0.00598516
0.00607437
0.00620499
0.00652516
0.006878
0.0072929
0.00757285
0.00787488
0.00823831
0.00815186
0.00828344
0.00789996
0.00809614
0.00773598
0.00711546
0.00680194
0.00668915
0.00627586
0.00626879
0.00591117
0.00379808
0.00372526
0.00363719
0.0039447
0.004319
0.00453378
0.00468105
0.00490828
0.00502569
0.00511919
0.00499391
0.00480536
0.00505425
0.00444121
0.00467984
0.00395114
0.00393222
0.00383674
0.0038793
0.00366474
0.00123563
0.00114478
0.00143769
0.0013891
0.00126312
0.00150794
0.00122849
0.00161028
0.00158747
0.00165162
0.00174049
0.00170686
0.00153827
0.0017358
0.00165568
0.00140746
0.00134721
0.00120381
0.00141701
0.00113028
0.0149103
0.0152806
0.015594
0.0162476
0.0171432
0.0179999
0.018872
0.0196351
0.0203913
0.0206357
0.0206
0.0202949
0.0195437
0.0186454
0.0180874
0.0168893
0.0160977
0.0154677
0.0152999
0.0145974
0.012914
0.0130904
0.0135788
0.0144227
0.0150951
0.0159631
0.016634
0.0172061
0.0179692
0.0181929
0.0179662
0.0178452
0.0173446
0.0167706
0.0156797
0.0152011
0.014184
0.0136541
0.0130511
0.012917
0.0110205
0.011675
0.0119406
0.0121515
0.0128028
0.0135057
0.0143782
0.0150164
0.0154017
0.0154761
0.0155992
0.0150501
0.0148632
0.0142704
0.0134881
0.0128386
0.0122195
0.0114593
0.0111961
0.0109788
0.00950171
0.00927672
0.0096491
0.0102408
0.0106736
0.0114327
0.0118583
0.0123612
0.0124087
0.0128639
0.0128658
0.0127124
0.0125732
0.0118236
0.011132
0.0105048
0.0100496
0.00949106
0.00928365
0.00938584
0.00714458
0.00758974
0.00766101
0.00832353
0.00848816
0.00875241
0.00964611
0.00977984
0.00996636
0.010169
0.0102555
0.0100503
0.00983132
0.00937609
0.00905274
0.00837359
0.00782259
0.00769501
0.00721812
0.00705416
0.00538831
0.00545075
0.00557854
0.0058657
0.0059601
0.00632281
0.00670336
0.00696962
0.00717434
0.00729483
0.00740409
0.00715568
0.00705718
0.00663697
0.00633646
0.00633903
0.0058201
0.00548296
0.0054452
0.00526849
0.00353443
0.00328784
0.00332545
0.00344341
0.00372166
0.00400013
0.00429007
0.00429374
0.00431589
0.00450464
0.00450554
0.00437202
0.00429276
0.00411368
0.00387466
0.00384014
0.00366689
0.00333551
0.00329018
0.0031355
0.000998793
0.00108397
0.00103901
0.00117437
0.00129848
0.001408
0.00133806
0.00129917
0.0014082
0.00161809
0.0015246
0.00124387
0.00152907
0.00145703
0.00144886
0.00116995
0.00124497
0.0011935
0.00106766
0.000985408
0.0129319
0.0130095
0.0134411
0.0139438
0.0145523
0.0153816
0.0162218
0.0171458
0.0174298
0.0175249
0.0178304
0.0171107
0.0168067
0.0161442
0.0152699
0.0145623
0.0136921
0.0130379
0.0125769
0.0123964
0.0109751
0.0113496
0.0118603
0.0123629
0.0129795
0.0138129
0.0144089
0.0147909
0.0153962
0.015813
0.0155151
0.0152438
0.0147565
0.0141714
0.0133909
0.0126309
0.0121142
0.0115715
0.0109377
0.0108342
0.00971661
0.0101189
0.0101354
0.0104963
0.0113411
0.011801
0.0123187
0.012835
0.0131054
0.0134759
0.0134975
0.0132115
0.0130475
0.0122647
0.0115721
0.010683
0.010107
0.00977415
0.00943234
0.00922445
0.00819097
0.00829797
0.00843633
0.00881257
0.00954902
0.00999751
0.0103779
0.0108038
0.0110669
0.0111433
0.0111828
0.0109017
0.0104903
0.0101974
0.00958458
0.00906004
0.00860474
0.0082842
0.0079505
0.0076042
0.00651601
0.00645872
0.0066656
0.00665773
0.00729901
0.00771827
0.00807018
0.00850314
0.00887281
0.0090846
0.00887039
0.00884858
0.00825526
0.00794984
0.00751756
0.00709372
0.00684587
0.00650632
0.00624861
0.00625712
0.00463604
0.0045488
0.00502919
0.00509793
0.00531955
0.00582184
0.00589128
0.00609155
0.00636477
0.00656881
0.00647694
0.00633384
0.00608973
0.00585663
0.00533385
0.00518245
0.00476883
0.00452351
0.00468579
0.00443376
0.00266297
0.00283733
0.00296864
0.00297601
0.00307208
0.00338424
0.00357131
0.00377474
0.00361654
0.00365075
0.00396935
0.00383316
0.00368301
0.00350495
0.00325843
0.00318709
0.00274591
0.00268139
0.00280797
0.00279956
0.000912862
0.00101208
0.00101588
0.00106214
0.00103623
0.00114826
0.00129231
0.00123674
0.00147892
0.00141245
0.00110884
0.00132798
0.00137566
0.00101825
0.00114944
0.0011505
0.000959787
0.000990077
0.000835329
0.000756235
0.0110166
0.0110528
0.0112611
0.0116675
0.0123144
0.012912
0.0136031
0.0141533
0.0148467
0.0148959
0.0148342
0.0146383
0.014002
0.0133059
0.0126361
0.0116612
0.011171
0.010506
0.0103459
0.0103577
0.00957119
0.00957737
0.00995755
0.0104957
0.0110566
0.0114516
0.0121967
0.0125735
0.0131522
0.0132292
0.0129381
0.012742
0.0123995
0.0115645
0.0109997
0.010451
0.00972951
0.00928251
0.00910919
0.00914767
0.00835993
0.00827437
0.0087101
0.00895836
0.00971807
0.00986339
0.0105776
0.0109508
0.0110312
0.0114984
0.0112918
0.0112829
0.0105367
0.0101926
0.00962291
0.00880404
0.008479
0.0079275
0.00775997
0.00747136
0.00694574
0.00712385
0.00726352
0.00757584
0.00792398
0.00823816
0.00860301
0.00896714
0.00938594
0.0094538
0.00929171
0.00908121
0.00887807
0.00824957
0.00793366
0.00739193
0.00692532
0.00671727
0.00663774
0.00638283
0.00548642
0.00556766
0.00561709
0.00622439
0.0060922
0.00664003
0.00677279
0.0071476
0.00748645
0.00745538
0.00753837
0.00732733
0.00700059
0.00658387
0.00621955
0.0059718
0.00546774
0.0052988
0.00503561
0.00500729
0.00400529
0.00407281
0.0043349
0.00426914
0.00460834
0.00479512
0.00501459
0.00519888
0.0053056
0.00521997
0.00544272
0.00556637
0.00509912
0.00471666
0.00489727
0.00421924
0.00408284
0.0039608
0.00358702
0.0034437
0.00237166
0.00245669
0.00261724
0.00266443
0.0028292
0.00269269
0.0029555
0.00314824
0.00324398
0.00327357
0.00332437
0.00332648
0.003124
0.00287056
0.00280245
0.0026074
0.00242653
0.00214317
0.00221458
0.0020706
0.000729702
0.000991212
0.000834685
0.000817218
0.0010792
0.00107305
0.000866339
0.00129332
0.00112504
0.00126112
0.00101082
0.0012611
0.00086865
0.00106642
0.000908769
0.00103186
0.000777124
0.000843947
0.000914064
0.000813678
0.00920067
0.00923622
0.00918484
0.00952073
0.0100701
0.0107485
0.0111234
0.0114704
0.012192
0.01228
0.0120073
0.0118015
0.0111548
0.0106799
0.0100389
0.00922636
0.00882475
0.00826095
0.00800153
0.00812222
0.00815315
0.00816356
0.0083952
0.00870918
0.00890108
0.00945313
0.0099305
0.0104354
0.0108179
0.0106223
0.0107822
0.0106379
0.0100214
0.00962037
0.00874559
0.0081417
0.00784193
0.00727927
0.00694845
0.00731361
0.00690221
0.00703982
0.00714831
0.00745957
0.00778053
0.00823809
0.00879134
0.0089456
0.009105
0.00930156
0.0092464
0.00898388
0.00862811
0.00818843
0.00777159
0.00738107
0.00686576
0.00639126
0.00601643
0.00608998
0.00589633
0.00594602
0.00587162
0.0062746
0.00680846
0.0066933
0.00722627
0.00742464
0.007666
0.00771719
0.00769092
0.00751599
0.0070721
0.0068069
0.00638081
0.0059491
0.00571841
0.00520313
0.00493534
0.0050457
0.00462445
0.00462033
0.00479924
0.00502656
0.005093
0.00546848
0.00565427
0.006038
0.00620029
0.00642311
0.00590495
0.00585144
0.00577926
0.00539637
0.00499477
0.00477059
0.00443712
0.00435122
0.00402863
0.00381739
0.00364868
0.00343369
0.00351289
0.00355445
0.00376045
0.00399141
0.00424343
0.00418224
0.00435526
0.00439951
0.00441
0.00424994
0.0041222
0.0038284
0.0034399
0.00326779
0.00331709
0.00292516
0.00279923
0.00268275
0.00211244
0.00200905
0.00206304
0.00226383
0.00224662
0.00221594
0.00240544
0.00258138
0.00274575
0.00269784
0.00279039
0.00272457
0.00253881
0.0024168
0.00209904
0.00211597
0.00192859
0.00180762
0.00173185
0.00187973
0.000500582
0.000798201
0.000738624
0.000724202
0.000584265
0.000727134
0.000933288
0.000973168
0.00103816
0.000882421
0.00108143
0.000911563
0.000880102
0.000508608
0.000627912
0.000706995
0.000750837
0.00049803
0.00060594
0.00045423
0.00792239
0.00749835
0.00771216
0.00751114
0.00816793
0.00862045
0.00878159
0.00936974
0.00944086
0.00965606
0.009703
0.009373
0.00863564
0.00834115
0.00745078
0.00698543
0.00662408
0.00620353
0.00609771
0.00633645
0.00680173
0.00668205
0.00666232
0.00691111
0.00731357
0.00748695
0.00778207
0.00825464
0.00850717
0.00861198
0.00847139
0.00834323
0.00781311
0.00743968
0.00677796
0.0064704
0.00574933
0.00566972
0.00551528
0.00559906
0.00612552
0.00603234
0.00588576
0.0060643
0.00622778
0.00654261
0.00694086
0.00717141
0.00736507
0.00758275
0.00739413
0.00717189
0.00670257
0.00620368
0.00575158
0.00552058
0.00522638
0.00474735
0.00471708
0.00471236
0.00499153
0.00500312
0.00493897
0.0048403
0.00528591
0.00560079
0.00567999
0.00612951
0.00614674
0.00594128
0.00618366
0.0061036
0.00567021
0.0053192
0.00484557
0.00480342
0.00424887
0.00387941
0.00399767
0.00412595
0.0041542
0.00375502
0.00408787
0.00390615
0.00415879
0.00449152
0.00476206
0.00485609
0.00481197
0.00484672
0.00515813
0.00496028
0.00468131
0.00401115
0.00387461
0.00356785
0.00337337
0.00302567
0.0030657
0.00298692
0.00269488
0.00268211
0.00280434
0.00314699
0.00295448
0.00313506
0.00309864
0.0033558
0.00348046
0.00356595
0.00347701
0.00351565
0.00313204
0.00311486
0.00268889
0.00264631
0.00242983
0.00224475
0.00227078
0.00232288
0.0017459
0.001595
0.00177728
0.00181859
0.00187366
0.00193339
0.0019406
0.00217128
0.00224724
0.00219722
0.00209989
0.00208
0.00191217
0.00173909
0.00180036
0.00169733
0.00157387
0.00146786
0.00132709
0.00111081
0.000713311
0.000701624
0.000577428
0.000672774
0.000578816
0.00073554
0.00080626
0.000568688
0.000574134
0.000759668
0.0010118
0.000753342
0.000766666
0.000455356
0.000785774
0.000577397
0.000359433
0.000409938
0.000491622
0.000412124
0.0066779
0.00632119
0.00639758
0.00637633
0.00642061
0.00675269
0.00687757
0.00708131
0.00725849
0.00733503
0.0073198
0.00706042
0.0064489
0.00603539
0.00536039
0.00513659
0.00466252
0.00449261
0.00444683
0.00467651
0.00592008
0.00566535
0.00540163
0.00577288
0.00568449
0.00599739
0.00619994
0.00653346
0.00667374
0.00643675
0.00645367
0.00626737
0.00585925
0.0054142
0.00500388
0.00457842
0.00436755
0.00412691
0.00404163
0.00414752
0.00498605
0.00500991
0.00494181
0.00461542
0.00491843
0.00510743
0.00544865
0.00560891
0.00571105
0.00573237
0.00569699
0.00518728
0.0053004
0.00461503
0.00430326
0.00396567
0.00369047
0.00362355
0.00357886
0.00341008
0.00436272
0.00417724
0.00421671
0.00408198
0.00415027
0.00434552
0.00454311
0.00493333
0.0046952
0.00507058
0.00480572
0.00452991
0.00437933
0.00397719
0.00358542
0.00311758
0.00308454
0.00292199
0.00276385
0.00298412
0.00336461
0.00330834
0.00323595
0.00315891
0.0033179
0.00342427
0.00370391
0.00365903
0.00370597
0.00396017
0.00372815
0.00364902
0.00324587
0.00312889
0.00289753
0.00276845
0.002647
0.00245624
0.00242531
0.00235558
0.00249274
0.00225907
0.00248436
0.0022982
0.00232485
0.00234407
0.00263827
0.00266271
0.00284989
0.00284771
0.00267368
0.00266695
0.00238381
0.00253712
0.00196743
0.00190169
0.0017566
0.00176944
0.00171492
0.0019049
0.00158084
0.00168803
0.00133367
0.00138263
0.00150108
0.001642
0.00160488
0.00181481
0.00154995
0.00175602
0.00161653
0.0015216
0.00145504
0.00157502
0.00137864
0.00108626
0.00134797
0.000941896
0.00103059
0.000955451
0.000455856
0.000536607
0.000699168
0.000761862
0.000629928
0.000214956
0.000528441
0.000500772
0.000813153
0.000711964
0.000516686
0.000487411
0.000664844
0.000504497
0.000509366
0.000409828
0.000390612
0.000739117
0.000385674
0.000155963
0.00576329
0.00549487
0.00496497
0.00497311
0.00513047
0.00483481
0.00524399
0.00522964
0.00548325
0.00545507
0.00521213
0.00496985
0.0044627
0.00419596
0.00370194
0.00351498
0.00312812
0.00316058
0.00319385
0.00342597
0.00526265
0.00466134
0.00448948
0.0042227
0.00436342
0.00445801
0.00464185
0.00460989
0.00499981
0.00486066
0.00487174
0.00441302
0.00411183
0.00381908
0.00330259
0.0030839
0.00282518
0.00269059
0.00285107
0.00278723
0.00445046
0.00429752
0.00395676
0.00359255
0.0039329
0.00398452
0.00411003
0.00406034
0.00433038
0.00401378
0.00413712
0.00399899
0.00344386
0.00326049
0.00270737
0.00274114
0.00228377
0.00221965
0.00219328
0.00256951
0.00371254
0.00342702
0.0030673
0.00313953
0.00310459
0.00334753
0.0032756
0.00338719
0.00347639
0.00357226
0.0033316
0.00325779
0.00299188
0.00256779
0.00262903
0.00229287
0.0021069
0.00197969
0.00208049
0.00197151
0.00277263
0.00266375
0.00271049
0.00249052
0.00243209
0.00259771
0.00282928
0.00285959
0.00285595
0.00294237
0.00273156
0.00234449
0.00223636
0.00227479
0.00196878
0.00188487
0.0016062
0.00145164
0.00159919
0.00158309
0.00212098
0.00210369
0.00205288
0.00206588
0.0018552
0.00210371
0.00202258
0.00210032
0.00220202
0.00208482
0.00225717
0.00184008
0.00170443
0.00156416
0.00151203
0.00121444
0.0011636
0.00111836
0.0010171
0.00123605
0.00142001
0.00142646
0.00104314
0.000967347
0.00117546
0.00115463
0.00109775
0.00134458
0.0013189
0.0012908
0.0012213
0.00133099
0.00117406
0.000865069
0.000920765
0.000691721
0.000823941
0.000765869
0.000605989
0.000774633
0.000508612
0.000549839
0.000259241
0.000451135
0.000419094
0.00056536
0.000380292
0.000519669
0.000374608
0.000549676
0.000248721
0.000394415
0.000303624
0.000326641
0.00025722
0.000399377
0.000230314
0.000171953
0.000227159
0.000167078
0.00506166
0.00475699
0.00422275
0.00382197
0.00359456
0.00369871
0.00360111
0.0037045
0.00383371
0.00373442
0.00354691
0.0032504
0.00282241
0.00258103
0.0022712
0.00198607
0.00192828
0.00176737
0.00217975
0.00241148
0.00467279
0.0041519
0.00381098
0.00364477
0.003281
0.00337562
0.0032904
0.0034136
0.00346332
0.00345429
0.00310038
0.00280979
0.00253255
0.00218914
0.00208377
0.00198394
0.00181371
0.00140656
0.00177105
0.00218782
0.00403082
0.00355332
0.00338378
0.00290559
0.00293406
0.00314738
0.00304053
0.00296042
0.00289301
0.00298077
0.00300261
0.00231867
0.00236821
0.0019229
0.00177185
0.00157034
0.00182549
0.00147397
0.00163163
0.00183248
0.00327882
0.0031197
0.00288804
0.00250035
0.00265503
0.00245526
0.00242201
0.00244458
0.00253257
0.00237708
0.00219306
0.00227451
0.00205206
0.00177745
0.00166315
0.00128513
0.00124957
0.00134554
0.00132307
0.00146761
0.00251638
0.00241585
0.00223684
0.0020708
0.00190358
0.002194
0.00219156
0.00188591
0.0017726
0.00198422
0.00193215
0.00176385
0.00157503
0.00131935
0.00135778
0.000987047
0.000995686
0.0011149
0.00106791
0.0013483
0.00174929
0.00174717
0.00159378
0.00145229
0.00161969
0.0014836
0.00145148
0.0016696
0.00181614
0.00128448
0.00148774
0.00130913
0.00109545
0.00100298
0.000900814
0.000614269
0.000928801
0.000791938
0.000888021
0.000968464
0.00112388
0.00107113
0.000946468
0.00101093
0.000970866
0.00108907
0.00098096
0.000808579
0.000961032
0.000941942
0.000690318
0.000893143
0.000759273
0.000686715
0.000586706
0.000386435
0.000249788
0.000301206
0.000613477
0.000520169
0.000378196
0.000255525
0.000300279
0.000407539
0.000532755
0.000367938
0.00017006
0.000269179
0.000244365
0.000293341
0.000348477
0.000214676
0.000144584
5.968e-05
1.4453e-05
7.27356e-05
2.41644e-05
0.000176917
0.000368171
9.83894e-05
0.00500836
0.00408465
0.00370401
0.00297983
0.00296848
0.00285091
0.0027825
0.00256651
0.00248032
0.00239615
0.00214309
0.00185797
0.00135737
0.00138842
0.00105997
0.00107834
0.000965559
0.00108901
0.00134931
0.00191872
0.00434704
0.00391569
0.00333612
0.00272099
0.00251817
0.00234334
0.00245126
0.00240311
0.00242333
0.00224845
0.00186562
0.00150241
0.00150276
0.00122504
0.00102925
0.000875026
0.00088036
0.000916301
0.00130698
0.00171247
0.00375293
0.00335209
0.00292972
0.00270496
0.00237651
0.00228513
0.00238034
0.0023153
0.0019102
0.00186688
0.00174639
0.00150946
0.00131514
0.0011557
0.000722887
0.000802083
0.000867751
0.00075304
0.00097071
0.00137389
0.00308559
0.00290192
0.00241277
0.00216893
0.00186917
0.00192329
0.00178553
0.00159975
0.00168932
0.00157023
0.00136391
0.00134908
0.00117125
0.000731235
0.000739537
0.000628624
0.000604136
0.000852858
0.00103222
0.000912366
0.0025532
0.00212475
0.00184708
0.00167637
0.00161178
0.00163146
0.00145653
0.00144544
0.00136265
0.00141009
0.000956867
0.00101607
0.00104034
0.000803057
0.000755106
0.000396619
0.000492649
0.000586187
0.000558622
0.000932481
0.00191675
0.0015193
0.00153837
0.00109602
0.00105146
0.00117157
0.00103646
0.00108749
0.00109659
0.000937495
0.000689258
0.0009252
0.000664893
0.000356355
0.000481078
0.000496407
0.000252254
0.00034131
0.000381991
0.00046065
0.00108913
0.00103217
0.00107766
0.000778964
0.000979391
0.00055787
0.000522715
0.000614775
0.000525869
0.000648248
0.000544932
0.0005255
0.000656162
0.000315269
0.000514393
3.02472e-05
0.000286969
0.000282814
0.000197737
0.000403018
0.000331938
0.000363104
0.000326841
0.00030175
7.20859e-05
0.000278631
0.000406584
8.61698e-05
0.000335993
0.00041929
0.000330895
0.000119315
3.93503e-05
0.000141597
0.000205346
0.000189
0.000259316
2.07514e-05
7.90308e-05
0.000173296
0.00491719
0.0042614
0.00352488
0.00273319
0.0025541
0.00237857
0.00191669
0.0017276
0.00158283
0.00142696
0.00106699
0.000905188
0.000486737
0.000549098
0.000164442
0.000187925
0.000256307
0.000858775
0.000808823
0.00157001
0.00421583
0.00373941
0.00313737
0.00240918
0.00233007
0.00193583
0.00170252
0.00141107
0.00117546
0.00129573
0.00122211
0.00081148
0.000487063
0.000389524
0.000255756
0.000155163
0.000419342
0.000413233
0.000864154
0.00137992
0.00394666
0.00334316
0.00271846
0.00226961
0.00202693
0.00174445
0.00147122
0.00147538
0.00128368
0.00123697
0.000707349
0.000800781
0.000676764
0.000355448
0.000163337
0.000148929
0.000158562
0.00051537
0.000515365
0.00113212
0.00314686
0.00258091
0.00227345
0.00182314
0.00155926
0.00135683
0.00134648
0.00104056
0.00111926
0.000997641
0.000877518
0.000599768
0.000600383
0.000391101
0.000291647
9.57758e-05
9.95028e-05
0.000548565
0.000696255
0.000712484
0.0023715
0.00202371
0.0019213
0.00153015
0.00125238
0.00122359
0.00102013
0.00098307
0.000721607
0.000878839
0.000818012
0.000414826
0.00035942
0.000352944
0.000286532
3.46676e-05
0.000102193
0.0001311
0.000467401
0.000755169
0.00182941
0.00157438
0.00146615
0.00138966
0.000999951
0.000746948
0.000531839
0.000693587
0.00070154
0.000423057
0.0006371
0.000313032
0.000333479
0.000474565
1.27441e-05
4.66848e-05
0.000310347
0.000240042
0.000489834
0.000750535
0.000962738
0.000908426
0.00077781
0.000663009
0.000621298
0.000709955
0.000646376
0.000349979
0.000457875
0.00034332
0.000828231
0.000155773
2.27029e-05
8.55477e-05
7.78399e-05
0.00014239
0.000138015
0.000198732
0.00020816
0.000342822
0.000193132
0.00045568
0.00031049
0.000128125
0.000251129
0.000298048
8.44619e-05
0.000155008
7.43445e-05
9.95573e-06
0.000253972
0.000228096
0.000115065
0.000162972
0.000139389
9.60915e-05
2.81951e-05
7.62016e-05
6.97639e-05
0.000102925
0.00541376
0.0045166
0.00351446
0.00295608
0.00237262
0.0018203
0.00146916
0.00145183
0.000971943
0.000513288
0.000409901
0.000372099
0.000138193
7.32063e-05
3.54619e-05
7.26462e-05
6.2329e-05
0.000294122
0.000975938
0.0016599
0.00470325
0.00394893
0.00317574
0.00262084
0.00222772
0.00175985
0.00138507
0.00110209
0.000835961
0.00071407
0.000455917
0.000368744
0.000129604
0.000107487
9.77504e-05
0.000255578
3.29997e-05
0.000427006
0.000699666
0.00164498
0.00408827
0.00352961
0.0030439
0.00222064
0.00169375
0.00137737
0.00127598
0.0010356
0.000764811
0.000563358
0.0003099
0.000167028
5.44549e-05
7.73173e-05
4.71693e-05
0.000148272
0.000127055
0.000380895
0.000670321
0.00110843
0.00352069
0.00295309
0.00248621
0.00205395
0.00163718
0.0012702
0.00112154
0.000752425
0.000868199
0.000596765
0.000353474
0.000151616
0.000104727
1.21251e-05
6.97318e-05
0.00013782
0.000256751
0.000286455
0.000448244
0.000894885
0.00272104
0.00237827
0.00184084
0.00152139
0.00133903
0.00112461
0.000877106
0.00086253
0.000401941
0.000516989
0.00043783
0.000184388
0.000267431
0.000242013
8.56668e-05
7.45282e-06
6.74664e-06
0.000302142
0.000525512
0.000850103
0.00184579
0.001588
0.0013866
0.000991403
0.000827563
0.000785035
0.000609336
0.00054534
0.000423197
0.000171811
0.000429372
0.000413474
0.000101121
0.00010221
4.95538e-05
0.000104163
0.000162286
0.000233603
0.000470497
0.000364237
0.00126641
0.00108665
0.000923551
0.000798894
0.000288947
0.00030253
0.000306688
0.000523809
0.000254272
2.66491e-05
0.000288612
2.26648e-05
0.000144381
0.000117971
9.78713e-06
6.70806e-05
1.53664e-05
4.23795e-05
0.00034226
0.000171394
0.000417141
0.000360157
0.000225445
0.000314507
0.000289106
4.37372e-05
3.65172e-05
0.000118606
0.000277391
0.00025979
1.82558e-05
8.60022e-07
3.61355e-05
8.53669e-05
6.25462e-05
8.03449e-05
5.80275e-05
4.27196e-05
7.11888e-05
0.00017951
0.00617823
0.00516608
0.00426126
0.00335992
0.00274748
0.00184232
0.00153966
0.00118925
0.000755363
0.000492944
0.000389569
4.1219e-05
4.27314e-05
0.000115251
0.000128172
0.000180018
0.000215032
0.000919009
0.00129077
0.00207585
0.00555049
0.00462036
0.00381416
0.003157
0.00240737
0.00177717
0.00140912
0.000800402
0.000781732
0.00052551
0.00027188
0.000159559
0.000240939
0.000133237
0.000327567
0.000148802
0.000196342
0.000647061
0.00105455
0.00175067
0.00455248
0.0038693
0.00325771
0.00251453
0.00199813
0.00153236
0.000986193
0.000860911
0.00090148
0.00041222
0.000299515
6.52991e-06
0.000126154
0.00030691
1.68838e-05
0.000213916
0.000108216
0.000764769
0.000972782
0.00133797
0.00400979
0.00344185
0.00244093
0.00226511
0.00190386
0.00137209
0.000860161
0.000732837
0.000458779
0.000234457
0.000141918
0.000393633
5.05524e-05
0.000274491
9.54392e-05
9.26288e-05
0.000192852
0.000292111
0.000813443
0.00115409
0.00295343
0.00256378
0.00224503
0.00174088
0.00125813
0.00114854
0.000827239
0.000460771
0.000390081
0.000379435
0.000195695
5.27817e-05
0.000163975
9.17066e-05
1.71973e-05
0.000125039
0.000147886
0.000561394
0.000615029
0.000718678
0.00201132
0.00191697
0.00149661
0.00117703
0.00128741
0.00076693
0.000618473
0.000748881
0.000578204
0.000277624
0.000275799
0.000173882
1.02896e-05
8.03052e-05
7.86083e-05
0.000218662
5.69763e-05
0.00025803
0.000378771
0.000750374
0.00121958
0.00109027
0.000864285
0.00106822
0.000529522
0.000501986
0.000503355
0.000477706
0.00033645
0.000271887
0.000213844
0.000122317
8.51181e-05
3.52232e-05
0.000194499
2.61847e-05
3.05603e-05
0.000219547
0.000475406
0.000348977
0.000584847
0.000414501
0.000436852
8.93657e-05
0.000200458
0.000186834
3.50853e-05
5.5797e-05
0.000301631
4.5725e-05
0.000229503
2.13572e-05
5.12028e-06
0.000161211
0.000265089
0.000133591
0.000118908
6.09945e-05
7.88342e-06
3.30359e-05
0.00735116
0.00639985
0.00519098
0.00422317
0.00306563
0.00258433
0.00209904
0.00134348
0.000808232
0.00078975
0.000502004
0.000205985
0.000363349
3.51255e-05
9.9373e-05
0.000487313
0.000625307
0.00173623
0.00236298
0.00302541
0.00647921
0.00539426
0.00453399
0.00397693
0.00298922
0.00234815
0.00188863
0.00146946
0.00102735
0.000852652
0.000254074
0.000417104
5.90946e-05
1.03965e-05
1.3503e-06
0.000448275
0.000911563
0.0012791
0.0018189
0.00237468
0.00549499
0.00463448
0.0039995
0.00309025
0.00262593
0.00190245
0.00147459
0.00102277
0.00103566
0.000585734
0.00046859
0.000427611
0.000227925
1.49307e-05
7.18368e-05
0.000219507
0.000497048
0.00105701
0.00146204
0.0021508
0.00457149
0.00374814
0.00325147
0.00251112
0.00212324
0.00169236
0.00114466
0.00109213
0.000792251
0.00041838
0.000666237
0.000346593
4.41109e-05
7.51099e-05
0.000148868
0.000331168
0.000464834
0.000959796
0.00133992
0.00163045
0.00360878
0.00307773
0.00254534
0.00202828
0.00167222
0.00101207
0.00114745
0.00088669
0.000630714
0.000396744
0.000470704
7.93053e-05
0.000187901
9.5763e-05
5.99727e-05
0.000259667
0.000340829
0.000763107
0.00104828
0.00136379
0.002568
0.00220517
0.00194085
0.00153582
0.00109155
0.000994567
0.00062693
0.000542423
0.000493915
0.000317901
0.000155723
2.58214e-05
9.47462e-05
0.000191204
0.000109618
9.80118e-05
0.000471928
0.000332107
0.000630096
0.0010532
0.00147717
0.00150625
0.0010636
0.000764804
0.000650138
0.000494594
0.00048213
0.000253208
0.000328378
0.00010693
0.000126112
0.000119789
0.000195001
1.90389e-05
9.53937e-05
3.09441e-05
2.23164e-05
0.0002512
0.000565511
0.000697482
0.000590341
0.00020452
0.000360763
0.000294315
0.000274143
0.000231102
0.000162107
0.000236144
0.000205961
0.000131896
6.03625e-05
0.000311058
4.22411e-05
0.000154842
5.98044e-05
3.51581e-05
0.000277228
5.66499e-05
0.000275094
3.20334e-05
0.00873495
0.00790461
0.00653782
0.00527214
0.00437648
0.00369249
0.00291548
0.00216379
0.00192154
0.0015099
0.000950158
0.000686361
0.00067227
0.000749081
0.00108887
0.00125866
0.00160073
0.00251725
0.00337731
0.00422206
0.00784027
0.00668146
0.00581747
0.00467665
0.00386434
0.00325952
0.00251988
0.00204969
0.0017626
0.00140794
0.000956847
0.000830422
0.000742955
0.000426845
0.000887088
0.00105028
0.00146529
0.00206815
0.0026845
0.00353985
0.00651364
0.00585689
0.00484403
0.00407472
0.00325382
0.00271834
0.00203637
0.00151687
0.00152872
0.00122124
0.00108588
0.000643268
0.000759047
0.000487117
0.000435905
0.000850841
0.000973957
0.00192584
0.0021487
0.00297123
0.00554284
0.00481748
0.00414772
0.00342153
0.00278753
0.00233022
0.00183481
0.00144015
0.00116335
0.000756938
0.000882304
0.000640451
0.000698429
0.000525739
0.000532699
0.0006694
0.000945382
0.00137575
0.00175351
0.00249507
0.00427184
0.00381963
0.00322351
0.00269699
0.00219012
0.00187901
0.0014393
0.00121912
0.000946001
0.000706501
0.000538018
0.000556807
0.000474006
0.000179872
0.000520849
0.000456291
0.000626022
0.00108994
0.00144783
0.00209173
0.00314819
0.0026566
0.00213115
0.00223023
0.00160885
0.00133657
0.00124143
0.000834126
0.000639162
0.000326431
0.000387452
0.000199775
0.000200855
0.00014613
0.000497002
0.0005089
0.000657656
0.000942945
0.000985038
0.00155688
0.00202207
0.0016663
0.00128657
0.00100761
0.000969553
0.000774494
0.000864503
0.000451795
0.000476462
0.000341327
0.000217778
0.000198996
0.000284289
0.000176554
0.000236194
0.000425057
0.000514773
0.000418748
0.000628516
0.00112595
0.000735224
0.000393276
0.000532264
0.000262157
0.000411659
0.000133794
2.70951e-05
0.000256762
8.37931e-05
9.7194e-05
0.000153391
4.16565e-05
4.54246e-06
1.16029e-07
9.21369e-06
9.10043e-05
0.000128279
0.000102816
0.000493552
0.000425756
0.0108345
0.00942005
0.00806299
0.00704463
0.00587059
0.0049558
0.00424552
0.00346504
0.00290158
0.00258739
0.00214102
0.00202653
0.00190804
0.00183922
0.00205884
0.00238427
0.00291419
0.00395932
0.00499399
0.00573219
0.00961942
0.00827968
0.00724247
0.00621483
0.00516849
0.00419684
0.00366213
0.00300238
0.00262074
0.00207712
0.00193855
0.00163927
0.00171183
0.00166784
0.00189639
0.00219883
0.00256424
0.00337474
0.0038824
0.00490022
0.00801668
0.0071932
0.00606432
0.00534731
0.00417057
0.00376119
0.00323822
0.00249869
0.00234477
0.00202335
0.00151308
0.00151182
0.00146038
0.00114922
0.00137246
0.00181055
0.00222913
0.00285024
0.00354736
0.00399872
0.00625225
0.00584491
0.00505129
0.00454088
0.00368178
0.00322479
0.00252532
0.00220384
0.00207618
0.00165741
0.0014675
0.00125659
0.00110232
0.00117808
0.00119137
0.00148748
0.00192208
0.00207495
0.00283691
0.00329742
0.00499902
0.00459628
0.00394961