/*--------------------------------*- C++ -*----------------------------------*\
| =========                 |                                                 |
| \\      /  F ield         | OpenFOAM: The Open Source CFD Toolbox           |
|  \\    /   O peration     | Version:  2212                                  |
|   \\  /    A nd           | Website:  www.openfoam.com                      |
|    \\/     M anipulation  |                                                 |
\*---------------------------------------------------------------------------*/
FoamFile
{
    version     2.0;
    format      ascii;
    arch        "LSB;label=32;scalar=64";
    class       volScalarField;
    location    "./ITHACAoutput/true/5.4";
    object      error;
}
// * * * * * * * * * * * * * * * * * * * * * * * * * * * * * * * * * * * * * //

dimensions      [0 0 0 1 0 0 0];

internalField   nonuniform List<scalar> 
3200
(
-1.33311
-1.47603
-1.49161
-1.34818
-0.965282
-0.441572
0.0632464
0.688594
1.25783
1.69141
1.87818
2.03802
1.98585
1.92346
1.81217
1.7384
1.8272
1.96603
2.2145
2.68509
-1.34282
-1.50695
-1.49805
-1.34271
-1.00821
-0.582151
-0.152218
0.349901
0.87853
1.16402
1.49178
1.4942
1.45986
1.43023
1.38911
1.32891
1.32948
1.55142
1.85074
2.09905
-1.29782
-1.42453
-1.43692
-1.28445
-0.986017
-0.572179
-0.198078
0.132198
0.467464
0.887219
0.980328
1.10844
1.13471
1.08188
0.973027
0.930746
0.948572
1.15731
1.36029
1.66877
-1.16741
-1.20112
-1.23591
-1.13811
-0.900705
-0.62961
-0.297649
0.0392108
0.359556
0.592431
0.736439
0.803854
0.774519
0.792437
0.713278
0.65885
0.753583
0.80488
1.02396
1.24323
-0.945037
-1.01621
-0.998752
-0.990166
-0.772062
-0.533553
-0.355217
-0.0776712
0.233737
0.412449
0.542723
0.540793
0.484287
0.555065
0.47986
0.418907
0.472208
0.627023
0.786548
0.926981
-0.793785
-0.760918
-0.72035
-0.715256
-0.564194
-0.464362
-0.235776
-0.00401938
0.115916
0.203605
0.284136
0.381632
0.337974
0.385194
0.293337
0.278625
0.311205
0.433433
0.439061
0.616726
-0.372217
-0.519548
-0.486028
-0.48789
-0.308101
-0.290653
-0.124393
-0.0807329
0.0207038
0.162208
0.176543
0.172708
0.265426
0.157832
0.171981
0.132708
0.137466
0.268662
0.285171
0.396271
-0.115559
-0.128458
-0.207846
-0.184996
-0.185051
-0.0446184
-0.0453126
0.0197661
-0.00627524
0.0692104
0.0462647
0.0214401
0.0800873
0.0700022
0.0180035
0.0413022
0.111374
0.0689092
0.110926
0.109893
-2.10835
-2.34811
-2.36807
-2.18371
-1.75957
-1.40528
-0.867078
-0.299709
0.229108
0.606074
0.918211
1.04067
1.01306
0.928515
0.927317
0.848654
0.951084
1.09607
1.49419
1.94779
-1.97045
-2.12727
-2.15357
-2.04044
-1.78013
-1.37991
-0.921507
-0.399277
-0.0332232
0.358882
0.551102
0.643755
0.747969
0.68218
0.514684
0.531978
0.590368
0.86977
1.11704
1.44025
-1.78314
-1.96424
-1.92612
-1.89363
-1.68448
-1.28109
-0.926641
-0.532371
-0.106462
0.171831
0.325663
0.420502
0.409166
0.377884
0.396218
0.400875
0.440355
0.643181
0.776585
1.15322
-1.54934
-1.61841
-1.67813
-1.68356
-1.36684
-1.15061
-0.882945
-0.496488
-0.189419
0.00785931
0.238299
0.293254
0.314334
0.216269
0.261916
0.185442
0.21805
0.34379
0.633642
0.852119
-1.26968
-1.33253
-1.35135
-1.33708
-1.07719
-0.899783
-0.675718
-0.434846
-0.263662
-0.0611317
0.0995813
0.218146
0.148553
0.150027
0.0774764
0.140254
0.204935
0.266855
0.36066
0.627804
-0.896895
-0.95198
-1.04691
-0.929597
-0.861406
-0.696144
-0.543575
-0.284294
-0.166586
-0.000937305
-0.0123368
0.0754184
0.0886551
0.116514
0.0483049
0.0777251
0.0282882
0.149935
0.314722
0.379633
-0.584423
-0.611459
-0.568047
-0.561556
-0.560042
-0.495138
-0.246216
-0.2708
-0.120279
-0.0960614
0.0482216
0.0637748
0.00444638
-0.0483572
0.0187429
0.097294
0.0450561
0.092862
0.146768
0.255526
-0.146707
-0.191237
-0.203253
-0.178989
-0.197476
-0.134959
-0.0986279
-0.0416473
-0.0338671
0.0137244
-0.0667737
-0.000398814
-0.0191204
0.00367543
0.0748805
0.00238542
0.0292279
0.0155975
0.041184
0.0686282
-3.08882
-3.26651
-3.32375
-3.22571
-3.00999
-2.61258
-2.09731
-1.4775
-1.01033
-0.625557
-0.368186
-0.236963
-0.249464
-0.3043
-0.226464
-0.244144
-0.146995
0.175168
0.526562
1.00387
-2.84714
-2.92585
-3.03111
-2.98974
-2.6839
-2.34238
-2.01451
-1.50692
-1.10632
-0.737882
-0.485653
-0.30313
-0.316877
-0.371204
-0.377505
-0.404926
-0.284797
-0.105607
0.245472
0.693878
-2.53794
-2.65417
-2.66684
-2.63862
-2.44268
-2.07606
-1.83627
-1.37327
-1.02566
-0.690819
-0.539737
-0.446901
-0.419076
-0.404407
-0.418128
-0.450621
-0.334769
-0.123012
0.179522
0.476656
-2.16184
-2.20385
-2.25382
-2.23212
-2.05822
-1.8112
-1.5329
-1.19437
-0.907167
-0.60227
-0.534855
-0.457776
-0.419578
-0.470472
-0.502766
-0.419368
-0.307756
-0.196023
0.0386048
0.320708
-1.66186
-1.79604
-1.83628
-1.71904
-1.64326
-1.45513
-1.20471
-0.965997
-0.723837
-0.598082
-0.479009
-0.371098
-0.327668
-0.424673
-0.349262
-0.402854
-0.247644
-0.102673
0.0521369
0.22813
-1.28857
-1.26793
-1.33545
-1.20402
-1.20325
-1.06198
-0.94817
-0.710039
-0.582555
-0.47506
-0.302169
-0.307703
-0.239384
-0.24982
-0.248948
-0.335287
-0.296364
-0.214889
-0.0185485
0.0796543
-0.697659
-0.671481
-0.830754
-0.779832
-0.720358
-0.622927
-0.509035
-0.443395
-0.310629
-0.279102
-0.205179
-0.249886
-0.171447
-0.184706
-0.24278
-0.154314
-0.153921
-0.0802404
-0.0285661
0.0191856
-0.24091
-0.274216
-0.283895
-0.258615
-0.293092
-0.165469
-0.196625
-0.103702
-0.117138
-0.114841
-0.143699
-0.0901951
-0.0274197
-0.0228913
0.0143542
-0.11209
-0.0731848
0.00809106
-0.0781204
-0.0177883
-4.03066
-4.23613
-4.28164
-4.3187
-4.12208
-3.68701
-3.3148
-2.73396
-2.32648
-1.82046
-1.61848
-1.53781
-1.43194
-1.44275
-1.45025
-1.3338
-1.14688
-0.823842
-0.34716
0.125606
-3.62313
-3.73626
-3.86134
-3.96252
-3.69476
-3.39189
-3.01381
-2.62098
-2.11497
-1.86889
-1.58443
-1.52383
-1.47291
-1.47099
-1.40706
-1.31287
-1.16084
-0.807479
-0.472388
-0.0752456
-3.09201
-3.36549
-3.49521
-3.36538
-3.26655
-2.93223
-2.58769
-2.3013
-1.95201
-1.68586
-1.42362
-1.36912
-1.36188
-1.28276
-1.2621
-1.22695
-1.06643
-0.850722
-0.43022
-0.0951131
-2.62582
-2.77361
-2.83755
-2.79999
-2.66838
-2.44486
-2.18166
-1.89924
-1.69831
-1.41849
-1.28115
-1.12052
-1.12233
-1.15216
-1.09833
-1.05184
-1.02288
-0.741213
-0.468751
-0.158271
-2.04524
-2.18163
-2.26295
-2.22112
-2.1199
-2.00032
-1.73595
-1.49939
-1.38837
-1.17596
-1.06459
-0.942536
-0.960745
-1.00835
-0.915368
-0.877546
-0.764768
-0.651683
-0.332147
-0.128626
-1.53097
-1.58605
-1.74588
-1.63225
-1.58623
-1.38935
-1.28873
-1.08398
-0.939768
-0.904286
-0.773465
-0.656994
-0.628561
-0.680876
-0.726245
-0.613715
-0.538096
-0.486026
-0.211166
-0.205544
-0.903323
-0.934715
-0.876721
-0.911402
-0.987783
-0.843095
-0.746103
-0.652754
-0.543189
-0.552673
-0.523078
-0.398497
-0.383101
-0.384888
-0.368355
-0.362442
-0.371634
-0.321263
-0.253956
-0.0996348
-0.310894
-0.310849
-0.323661
-0.364257
-0.334148
-0.243235
-0.243516
-0.256681
-0.250509
-0.196387
-0.14736
-0.132681
-0.181265
-0.0713789
-0.162451
-0.10704
-0.0716119
-0.0991218
0.0191037
-0.0275242
-4.60434
-4.99224
-5.20202
-5.16314
-5.04142
-4.72555
-4.36778
-3.90001
-3.42065
-2.99867
-2.83614
-2.65315
-2.56011
-2.43399
-2.41469
-2.27586
-2.01132
-1.68138
-1.11555
-0.55974
-4.18896
-4.49144
-4.66102
-4.64107
-4.5838
-4.25984
-3.92117
-3.58737
-3.14061
-2.7843
-2.57564
-2.43664
-2.39745
-2.30335
-2.35508
-2.14518
-1.89817
-1.55185
-1.03869
-0.705014
-3.6337
-3.90743
-4.04683
-4.04198
-3.9165
-3.76633
-3.39013
-3.07961
-2.81493
-2.50917
-2.29867
-2.21512
-2.13097
-2.14155
-2.04832
-1.96803
-1.72895
-1.4356
-1.03525
-0.660387
-2.96914
-3.27407
-3.43562
-3.40574
-3.29523
-3.07731
-2.9028
-2.61462
-2.35906
-2.0793
-1.97249
-1.81721
-1.81617
-1.79366
-1.69456
-1.57427
-1.48076
-1.18832
-0.911131
-0.614501
-2.35224
-2.55094
-2.63843
-2.64728
-2.53623
-2.43035
-2.20644
-2.08128
-1.8506
-1.74194
-1.54053
-1.47499
-1.40151
-1.40061
-1.39654
-1.37206
-1.16571
-1.0303
-0.704787
-0.506669
-1.75855
-1.87977
-1.85929
-1.86428
-1.89527
-1.75678
-1.70146
-1.49662
-1.31121
-1.21582
-1.10639
-1.07967
-1.05596
-1.03311
-1.07566
-0.90039
-0.895849
-0.744013
-0.588658
-0.438348
-1.00264
-1.09257
-1.17961
-1.1529
-1.08406
-1.08253
-1.07237
-0.846769
-0.867974
-0.775274
-0.618516
-0.716399
-0.643731
-0.605457
-0.618174
-0.564484
-0.606576
-0.507796
-0.310386
-0.215292
-0.379381
-0.398801
-0.402142
-0.394191
-0.363467
-0.305364
-0.290037
-0.313234
-0.226366
-0.260037
-0.200192
-0.242338
-0.191836
-0.242482
-0.216146
-0.168809
-0.108488
-0.103288
-0.155662
-0.141637
-5.11302
-5.54128
-5.837
-5.94787
-5.84066
-5.53211
-5.24092
-4.77289
-4.4839
-4.09473
-3.8502
-3.65135
-3.52598
-3.38519
-3.29709
-3.04478
-2.72173
-2.17347
-1.65176
-1.0616
-4.67412
-4.94882
-5.21749
-5.25653
-5.27879
-5.05063
-4.73745
-4.36374
-4.05562
-3.77375
-3.52231
-3.29575
-3.26752
-3.15815
-2.91436
-2.80894
-2.53835
-2.11827
-1.61063
-1.10581
-4.02385
-4.32094
-4.51207
-4.56908
-4.50717
-4.36429
-4.13735
-3.84466
-3.56316
-3.26532
-3.02834
-2.94553
-2.80433
-2.75995
-2.60736
-2.53035
-2.21927
-1.87942
-1.4088
-1.0284
-3.35097
-3.6171
-3.77688
-3.83375
-3.78026
-3.60843
-3.4232
-3.17757
-2.93672
-2.69108
-2.57699
-2.45199
-2.32595
-2.28841
-2.16374
-2.05716
-1.87782
-1.62947
-1.26064
-0.84832
-2.64148
-2.75116
-2.92054
-2.97734
-2.92174
-2.8348
-2.68602
-2.49625
-2.34098
-2.16112
-2.02278
-1.98707
-1.81727
-1.84938
-1.76045
-1.63372
-1.43647
-1.22055
-1.02363
-0.727788
-1.85024
-2.02635
-2.1254
-2.18905
-2.11981
-2.03727
-1.91108
-1.81547
-1.69491
-1.60807
-1.50583
-1.43609
-1.38711
-1.35602
-1.22538
-1.25544
-1.05774
-0.914194
-0.729858
-0.56353
-1.14899
-1.23721
-1.28374
-1.28418
-1.30834
-1.23966
-1.12665
-1.04196
-1.02005
-0.954405
-0.828893
-0.894086
-0.807091
-0.803601
-0.792882
-0.724559
-0.679524
-0.544444
-0.429838
-0.315835
-0.323322
-0.434677
-0.399282
-0.449118
-0.416676
-0.470946
-0.361276
-0.382472
-0.328155
-0.284814
-0.323026
-0.331969
-0.315368
-0.274926
-0.268073
-0.298689
-0.194355
-0.178539
-0.143803
-0.117606
-5.50536
-5.93985
-6.24056
-6.39998
-6.42574
-6.16161
-5.94996
-5.60676
-5.30967
-5.0024
-4.74278
-4.4761
-4.24713
-4.09873
-3.88795
-3.68372
-3.2344
-2.66548
-1.98949
-1.37708
-4.94159
-5.19781
-5.55695
-5.68236
-5.73572
-5.66303
-5.31363
-5.06089
-4.76564
-4.45932
-4.21561
-3.98008
-3.90365
-3.69945
-3.61317
-3.27454
-3.01309
-2.48796
-1.86428
-1.30212
-4.23528
-4.59764
-4.79749
-4.91332
-4.87129
-4.82599
-4.6571
-4.36892
-4.11775
-3.8836
-3.70111
-3.52929
-3.44113
-3.28415
-3.03328
-2.89089
-2.59565
-2.18817
-1.64969
-1.25116
-3.50897
-3.86673
-3.97365
-4.0777
-4.07299
-4.00307
-3.79661
-3.64943
-3.42725
-3.30243
-3.15794
-3.02488
-2.84874
-2.76411
-2.60095
-2.43291
-2.11256
-1.84196
-1.4819
-1.10617
-2.80207
-2.98676
-3.21662
-3.20108
-3.24071
-3.13049
-2.98322
-2.83268
-2.5892
-2.57851
-2.47159
-2.31753
-2.29209
-2.11769
-2.07768
-1.8801
-1.77923
-1.50522
-1.11772
-0.88366
-2.0188
-2.1236
-2.30996
-2.3816
-2.3079
-2.29104
-2.23231
-2.06601
-1.96233
-1.8784
-1.7493
-1.68643
-1.6514
-1.56839
-1.47027
-1.42133
-1.26366
-1.06499
-0.771965
-0.620517
-1.16118
-1.3261
-1.31322
-1.37403
-1.36736
-1.35114
-1.3751
-1.26798
-1.17998
-1.10489
-1.10099
-1.01639
-1.0301
-0.915222
-0.867846
-0.881546
-0.763692
-0.704516
-0.504443
-0.401017
-0.450667
-0.407703
-0.467204
-0.453305
-0.484405
-0.391982
-0.470846
-0.398783
-0.48951
-0.334406
-0.368222
-0.365533
-0.334404
-0.302823
-0.26806
-0.238573
-0.256399
-0.194043
-0.19971
-0.167669
-5.63834
-6.05858
-6.47879
-6.69836
-6.71882
-6.67473
-6.43016
-6.22278
-5.9075
-5.56546
-5.26814
-5.05568
-4.8061
-4.62088
-4.24705
-4.06085
-3.44602
-2.88352
-2.06679
-1.37011
-4.95302
-5.40369
-5.70733
-5.97699
-6.00086
-5.91072
-5.73093
-5.52308
-5.22371
-5.04056
-4.72453
-4.51036
-4.36416
-4.11678
-3.88688
-3.54036
-3.17223
-2.56726
-2.03275
-1.33498
-4.3152
-4.64747
-4.96623
-5.09562
-5.1365
-5.1359
-4.96349
-4.74729
-4.55187
-4.40971
-4.13203
-3.94734
-3.77074
-3.60989
-3.37256
-3.16876
-2.81193
-2.36677
-1.82696
-1.28748
-3.59393
-3.88385
-4.10921
-4.3107
-4.26051
-4.24542
-4.14704
-3.91392
-3.79519
-3.71484
-3.4453
-3.33566
-3.14134
-3.08845
-2.83459
-2.63825
-2.35962
-2.0632
-1.57657
-1.09327
-2.83826
-3.10727
-3.23484
-3.31852
-3.33374
-3.38757
-3.27536
-3.19562
-3.03962
-2.90747
-2.73938
-2.65265
-2.47851
-2.35245
-2.26168
-2.07339
-1.90597
-1.62794
-1.25659
-0.954819
-2.0475
-2.16873
-2.31774
-2.38322
-2.34805
-2.427
-2.33918
-2.32031
-2.18988
-2.0229
-1.97855
-1.95996
-1.87582
-1.68184
-1.69396
-1.5302
-1.36526
-1.12473
-0.838533
-0.745685
-1.2271
-1.34334
-1.46104
-1.57167
-1.50511
-1.41011
-1.40542
-1.42308
-1.36568
-1.19128
-1.11894
-1.08061
-1.14605
-1.05943
-0.999587
-0.992327
-0.831045
-0.733541
-0.504865
-0.48719
-0.392012
-0.409112
-0.480683
-0.441937
-0.522635
-0.467918
-0.458534
-0.436982
-0.371481
-0.324862
-0.384393
-0.398049
-0.340549
-0.356072
-0.302791
-0.331806
-0.241247
-0.293358
-0.186797
-0.167868
-5.41031
-5.95568
-6.34787
-6.75826
-6.84616
-6.86411
-6.78233
-6.4644
-6.21152
-5.92095
-5.69242
-5.39829
-5.1529
-4.82281
-4.50163
-4.07461
-3.47717
-2.77856
-2.04397
-1.22622
-4.75855
-5.2992
-5.72434
-5.93865
-6.0972
-6.07917
-5.91461
-5.72823
-5.58583
-5.28813
-5.05011
-4.86281
-4.59863
-4.38748
-4.08025
-3.63709
-3.21912
-2.5282
-1.93267
-1.2144
-4.23297
-4.53817
-4.91218
-5.2014
-5.20542
-5.25624
-5.21019
-4.97714
-4.76724
-4.63088
-4.40525
-4.17276
-4.04637
-3.78999
-3.57589
-3.23938
-2.85923
-2.28382
-1.65595
-1.15137
-3.49982
-3.82373
-4.13393
-4.33528
-4.36293
-4.29503
-4.32035
-4.18471
-4.03792
-3.87285
-3.65808
-3.48424
-3.41789
-3.2255
-2.98165
-2.68533
-2.42029
-1.88974
-1.38398
-0.965278
-2.82295
-3.00128
-3.19587
-3.36059
-3.43655
-3.49036
-3.3695
-3.28347
-3.1813
-3.02614
-2.92945
-2.85483
-2.73185
-2.49166
-2.39172
-2.14093
-1.84018
-1.57634
-1.17221
-0.809632
-2.04614
-2.16865
-2.31074
-2.45859
-2.46003
-2.48867
-2.40768
-2.30406
-2.24903
-2.20308
-2.0556
-1.98605
-1.93696
-1.8189
-1.66092
-1.5061
-1.40314
-1.1623
-0.851938
-0.667444
-1.19849
-1.31969
-1.31661
-1.44627
-1.48742
-1.52649
-1.45462
-1.45558
-1.43272
-1.30465
-1.26585
-1.21446
-1.11103
-1.02186
-1.04328
-0.930564
-0.77839
-0.760319
-0.501528
-0.372807
-0.367404
-0.447538
-0.502845
-0.480938
-0.520707
-0.536627
-0.479071
-0.479413
-0.415145
-0.433782
-0.43099
-0.383704
-0.349145
-0.371887
-0.419044
-0.315627
-0.302202
-0.248253
-0.200773
-0.113946
-4.89289
-5.55944
-6.10852
-6.43839
-6.73299
-6.73164
-6.65417
-6.51065
-6.27526
-6.09781
-5.79376
-5.53902
-5.26169
-4.86048
-4.40587
-3.98722
-3.21629
-2.54159
-1.65227
-0.757642
-4.51177
-5.00243
-5.44394
-5.84683
-5.97498
-6.0085
-6.03646
-5.88261
-5.71351
-5.40446
-5.19608
-4.90821
-4.68896
-4.40542
-3.99323
-3.54262
-3.02735
-2.32081
-1.61287
-0.892864
-3.81432
-4.22935
-4.70337
-5.04625
-5.1052
-5.14397
-5.15045
-5.06556
-4.92224
-4.70116
-4.49658
-4.30125
-3.99746
-3.82356
-3.4469
-3.14082
-2.66293
-2.01566
-1.44105
-0.940714
-3.24247
-3.59106
-3.89737
-4.13614
-4.28225
-4.30152
-4.28768
-4.13141
-4.06432
-3.92222
-3.71621
-3.55418
-3.34339
-3.14376
-2.8774
-2.58018
-2.20278
-1.74251
-1.22741
-0.768321
-2.54819
-2.79358
-2.98639
-3.3266
-3.34716
-3.42856
-3.46402
-3.26465
-3.21999
-3.12767
-3.00476
-2.81997
-2.68837
-2.45284
-2.313
-2.05502
-1.797
-1.41696
-0.977544
-0.67389
-1.85994
-2.038
-2.19066
-2.37436
-2.4826
-2.45071
-2.34655
-2.39414
-2.23709
-2.21776
-2.1599
-2.01626
-1.92857
-1.83383
-1.72217
-1.50979
-1.29649
-1.00346
-0.713853
-0.494077
-1.06237
-1.24152
-1.33876
-1.42584
-1.42726
-1.48573
-1.49085
-1.42719
-1.40485
-1.31468
-1.2663
-1.15856
-1.1801
-1.12162
-1.03898
-0.971552
-0.745786
-0.624919
-0.471757
-0.335119
-0.355079
-0.379668
-0.410794
-0.513475
-0.497227
-0.514349
-0.472558
-0.427638
-0.49053
-0.500701
-0.460723
-0.448981
-0.423571
-0.370562
-0.317821
-0.323601
-0.301774
-0.230193
-0.175278
-0.144188
-4.21323
-4.87823
-5.50063
-6.00438
-6.22087
-6.32609
-6.4065
-6.28979
-6.15445
-5.92087
-5.62185
-5.33802
-4.9425
-4.57187
-4.11286
-3.48609
-2.79449
-1.99836
-0.993142
-0.129885
-3.84513
-4.38205
-4.96854
-5.36294
-5.60038
-5.63678
-5.73142
-5.61464
-5.49405
-5.31465
-5.02917
-4.74958
-4.44237
-4.137
-3.63247
-3.21486
-2.58424
-1.82221
-1.05395
-0.293935
-3.28343
-3.82237
-4.26894
-4.62899
-4.86964
-4.97695
-4.96831
-4.84171
-4.7386
-4.55226
-4.40759
-4.12203
-3.92504
-3.58594
-3.22008
-2.87495
-2.24451
-1.63384
-0.99968
-0.34127
-2.77337
-3.17659
-3.53013
-3.87179
-4.01534
-4.10146
-4.13051
-4.02622
-3.91973
-3.74535
-3.61171
-3.42526
-3.24116
-3.06829
-2.70491
-2.34437
-1.91634
-1.42576
-0.808805
-0.310881
-2.20427
-2.57958
-2.81531
-2.98477
-3.13736
-3.21478
-3.20182
-3.215
-3.1611
-2.98945
-2.91894
-2.75881
-2.54532
-2.35983
-2.1231
-1.84331
-1.55125
-1.17928
-0.743571
-0.361523
-1.65619
-1.83557
-1.9809
-2.17706
-2.23451
-2.39235
-2.36972
-2.2907
-2.27027
-2.1264
-2.10596
-1.95816
-1.88267
-1.7278
-1.55883
-1.36001
-1.07379
-0.839407
-0.577529
-0.281024
-0.972941
-1.13545
-1.19878
-1.27119
-1.41023
-1.41875
-1.41061
-1.37155
-1.3928
-1.32511
-1.21661
-1.18497
-1.10458
-1.15735
-0.951666
-0.828067
-0.707519
-0.466954
-0.30222
-0.111168
-0.326528
-0.444416
-0.433673
-0.42393
-0.464837
-0.517022
-0.474542
-0.43717
-0.442205
-0.459824
-0.371251
-0.400051
-0.393596
-0.405018
-0.304061
-0.253373
-0.200853
-0.145167
-0.0648277
-0.0502426
-3.24654
-3.91516
-4.57184
-5.16594
-5.53921
-5.76016
-5.79825
-5.78932
-5.62361
-5.50085
-5.16485
-4.77848
-4.49213
-3.97728
-3.4457
-2.79305
-1.96118
-1.06606
-0.106988
0.840564
-2.98744
-3.54743
-4.15478
-4.64628
-4.95885
-5.13583
-5.16454
-5.11287
-5.00413
-4.85219
-4.61339
-4.29679
-4.12637
-3.57069
-3.2131
-2.55944
-1.85569
-1.08979
-0.260043
0.569963
-2.56855
-3.11823
-3.58361
-4.03353
-4.24549
-4.44074
-4.51455
-4.50006
-4.3988
-4.17224
-3.98334
-3.78771
-3.53406
-3.10213
-2.71633
-2.27661
-1.69737
-1.01176
-0.355359
0.338052
-2.25846
-2.57646
-3.06236
-3.34371
-3.61439
-3.67145
-3.80733
-3.72057
-3.66956
-3.53938
-3.42146
-3.21065
-2.97324
-2.68154
-2.33883
-1.86802
-1.46079
-0.888772
-0.281878
0.147053
-1.72197
-2.08471
-2.38572
-2.61244
-2.83785
-2.92046
-2.96027
-2.94496
-2.94316
-2.81287
-2.58037
-2.51217
-2.36972
-2.1274
-1.85319
-1.56379
-1.08333
-0.785583
-0.266216
0.110316
-1.29437
-1.47594
-1.71578
-1.8844
-2.13087
-2.02815
-2.05741
-2.17956
-2.10186
-1.9542
-1.92379
-1.85905
-1.62556
-1.54229
-1.27642
-1.13556
-0.868625
-0.541004
-0.193344
0.124089
-0.777085
-0.964405
-1.04624
-1.16556
-1.21576
-1.33532
-1.3105
-1.31155
-1.26584
-1.23799
-1.24401
-1.11217
-1.06953
-0.902673
-0.793417
-0.668263
-0.540558
-0.261186
-0.138766
0.0131053
-0.228301
-0.363662
-0.354973
-0.442336
-0.504135
-0.414241
-0.464333
-0.444574
-0.411028
-0.366043
-0.472438
-0.365543
-0.345235
-0.319126
-0.294085
-0.227888
-0.153276
-0.155956
-0.0391762
0.0471273
-1.95098
-2.76754
-3.52047
-4.08056
-4.56608
-4.7862
-4.9033
-4.99471
-4.87509
-4.63462
-4.36301
-4.02009
-3.57104
-3.16944
-2.49826
-1.79717
-0.933459
0.0363705
1.11685
2.06214
-1.88262
-2.5165
-3.21819
-3.79446
-4.07865
-4.39151
-4.45606
-4.4707
-4.39536
-4.13464
-3.90554
-3.70905
-3.349
-2.90007
-2.29783
-1.75997
-0.947187
-0.188738
0.7171
1.63754
-1.6748
-2.18388
-2.82689
-3.21754
-3.61979
-3.80805
-3.86315
-3.85779
-3.76809
-3.69478
-3.40569
-3.20336
-2.92047
-2.54493
-2.14896
-1.62878
-0.932846
-0.17272
0.53552
1.26702
-1.44893
-1.91498
-2.37064
-2.73944
-2.98299
-3.12157
-3.18433
-3.28593
-3.18274
-3.09356
-2.88462
-2.66744
-2.45298
-2.18899
-1.79264
-1.30779
-0.817909
-0.256039
0.343522
0.980801
-1.11954
-1.50082
-1.85741
-2.09304
-2.33296
-2.46618
-2.58713
-2.58129
-2.49428
-2.48609
-2.25942
-2.07095
-1.96466
-1.71096
-1.4755
-1.13625
-0.684088
-0.184469
0.232555
0.646323
-0.802516
-1.13113
-1.34165
-1.53166
-1.71766
-1.76543
-1.86404
-1.85496
-1.78918
-1.6987
-1.62194
-1.53251
-1.49021
-1.20465
-1.07767
-0.785001
-0.512549
-0.245945
0.213362
0.502818
-0.568176
-0.645117
-0.804209
-1.01665
-0.963016
-1.11441
-1.12858
-1.11903
-1.08883
-1.09065
-0.973975
-0.953172
-0.867208
-0.759702
-0.629926
-0.478672
-0.337302
-0.0558882
0.135578
0.265213
-0.201175
-0.228644
-0.187809
-0.364594
-0.369192
-0.369929
-0.341364
-0.38292
-0.409293
-0.366703
-0.371146
-0.279038
-0.312084
-0.255739
-0.149453
-0.168735
-0.0965339
-0.0579667
0.0534148
0.105281
-0.434727
-1.20312
-2.01262
-2.71693
-3.18944
-3.49058
-3.75538
-3.77518
-3.7431
-3.68013
-3.26962
-2.93819
-2.51193
-1.93182
-1.33976
-0.508235
0.45526
1.49772
2.46901
3.56224
-0.553514
-1.17964
-1.98007
-2.55442
-2.98754
-3.28673
-3.35819
-3.45518
-3.35965
-3.19347
-2.97554
-2.71434
-2.35494
-1.85904
-1.28802
-0.616732
0.174035
1.09469
2.01071
2.95247
-0.614616
-1.17724
-1.69109
-2.26237
-2.57824
-2.85454
-3.02435
-3.02675
-3.05183
-2.88933
-2.61155
-2.4529
-2.04003
-1.71422
-1.17729
-0.650658
0.014183
0.829534
1.66406
2.35466
-0.516656
-1.04685
-1.47596
-1.89197
-2.2171
-2.46355
-2.51226
-2.55135
-2.50654
-2.39796
-2.27434
-2.06318
-1.75461
-1.42641
-1.05904
-0.644865
-0.0294273
0.536108
1.23417
1.86695
-0.478596
-0.788419
-1.14483
-1.53796
-1.7348
-1.91747
-1.96526
-2.02126
-2.0194
-1.91312
-1.72194
-1.57002
-1.42022
-1.17041
-0.858996
-0.508366
-0.0437407
0.415326
0.944358
1.37575
-0.344873
-0.625558
-0.838508
-1.10058
-1.23102
-1.40405
-1.46746
-1.49779
-1.35527
-1.42027
-1.31116
-1.17603
-1.03048
-0.849795
-0.631368
-0.428792
0.00590771
0.298973
0.666798
0.979485
-0.221727
-0.330308
-0.55648
-0.620048
-0.754873
-0.873758
-0.880804
-0.918106
-0.868347
-0.889783
-0.793927
-0.654758
-0.642798
-0.489712
-0.375008
-0.256719
-0.0585334
0.170354
0.41777
0.610531
-0.108764
-0.0857733
-0.211112
-0.252696
-0.261219
-0.295614
-0.260994
-0.304878
-0.301447
-0.347456
-0.272373
-0.258646
-0.220464
-0.132702
-0.15932
-0.0982607
0.0986664
0.093847
0.111624
0.154465
1.44099
0.509745
-0.376187
-1.10379
-1.55407
-2.00218
-2.24619
-2.36412
-2.32561
-2.12324
-1.86301
-1.44127
-1.03948
-0.504035
0.242795
1.06624
2.01789
3.08198
4.30119
5.42428
1.04549
0.312889
-0.436617
-1.0697
-1.59714
-1.92714
-2.03866
-2.23123
-2.10831
-1.98075
-1.79683
-1.47488
-1.10561
-0.606076
0.0054137
0.722452
1.61486
2.5623
3.58365
4.49442
0.737196
0.103446
-0.489295
-1.06893
-1.40886
-1.66587
-1.88682
-1.97385
-1.95352
-1.81838
-1.59129
-1.36823
-1.02926
-0.61087
-0.114227
0.532797
1.25873
2.00872
2.96048
3.67244
0.60875
0.024612
-0.368956
-0.838928
-1.24319
-1.39529
-1.66191
-1.66558
-1.69021
-1.57478
-1.37088
-1.23869
-0.850085
-0.567752
-0.150837
0.386337
1.05555
1.6521
2.31604
2.88779
0.365998
-0.0580189
-0.403083
-0.692682
-1.00657
-1.09505
-1.29995
-1.33627
-1.27171
-1.25382
-1.16816
-0.957137
-0.73517
-0.448895
-0.12669
0.241794
0.717486
1.22624
1.70609
2.25003
0.280467
-0.0463149
-0.295712
-0.531167
-0.77202
-0.883196
-0.93339
-0.969415
-0.957709
-0.956016
-0.791657
-0.709584
-0.549218
-0.330263
-0.138636
0.189119
0.442203
0.845253
1.28272
1.52665
0.176903
0.0318162
-0.212324
-0.284879
-0.474506
-0.452623
-0.554227
-0.593256
-0.551289
-0.557174
-0.584038
-0.425751
-0.387704
-0.267577
-0.0723089
0.109657
0.225554
0.481992
0.726016
0.92313
0.0443701
-0.0440431
-0.096636
-0.110526
-0.24431
-0.202012
-0.255836
-0.198638
-0.168754
-0.22694
-0.175347
-0.121595
-0.0743646
-0.0667119
-0.0730746
0.0483324
0.11143
0.197429
0.207542
0.314297
3.54516
2.59976
1.69684
0.943754
0.318102
-0.115195
-0.488325
-0.52607
-0.552239
-0.438633
-0.118816
0.238922
0.717058
1.33302
2.01986
2.92865
3.91763
5.10468
6.34369
7.42828
2.87022
2.08801
1.32458
0.645081
0.0752699
-0.31294
-0.534642
-0.647989
-0.632099
-0.528945
-0.207252
0.110775
0.476128
0.963777
1.60276
2.3561
3.2125
4.20069
5.33846
6.2754
2.29008
1.72316
1.06947
0.436583
-0.0553906
-0.338519
-0.627556
-0.682593
-0.640917
-0.589814
-0.382359
-0.10838
0.229526
0.693112
1.25875
1.92772
2.64977
3.47448
4.43334
5.14093
1.8163
1.28316
0.736592
0.267893
-0.117552
-0.342914
-0.550019
-0.609932
-0.612555
-0.481648
-0.318405
-0.20936
0.15911
0.468119
0.975796
1.50866
2.12969
2.75593
3.54447
4.16571
1.32411
0.928561
0.51935
0.127534
-0.144428
-0.354162
-0.462418
-0.5079
-0.538381
-0.50946
-0.339721
-0.185593
0.0944191
0.403426
0.716428
1.11145
1.59068
2.10648
2.65377
3.18498
0.911444
0.672428
0.417544
0.0805435
-0.0761753
-0.217082
-0.362559
-0.40364
-0.440077
-0.321849
-0.186597
-0.18268
0.00225486
0.241962
0.375962
0.81913
1.09689
1.45025
1.95497
2.20497
0.539269
0.364093
0.161294
0.0457417
-0.0248977
-0.192757
-0.176284
-0.249673
-0.18993
-0.143004
-0.159546
-0.0963873
0.0680796
0.100212
0.267851
0.420326
0.642011
0.880143
1.1647
1.34666
0.201657
0.144362
0.0779845
0.00177111
-0.0487938
-0.00373724
-0.0516039
-0.0831899
-0.143675
-0.0699135
-0.0277001
-0.0739417
0.0516748
0.01597
0.0770096
0.15615
0.224007
0.244562
0.310387
0.46276
5.84397
4.98843
3.94885
3.097
2.43652
2.02678
1.61916
1.52155
1.47657
1.68561
1.86846
2.20783
2.73548
3.45032
4.12806
5.0728
6.09337
7.24636
8.60529
9.79513
4.92354
4.1007
3.34219
2.61138
2.00245
1.56886
1.23641
1.15245
1.12748
1.21039
1.47919
1.77415
2.23617
2.75935
3.41488
4.2013
5.21429
6.11717
7.31407
8.2632
4.03304
3.35255
2.68915
2.06192
1.56146
1.26655
0.928798
0.82544
0.799096
0.930139
1.06382
1.39711
1.74983
2.25985
2.79712
3.4707
4.28812
5.04966
6.04942
6.80773
3.19461
2.6966
2.12388
1.60389
1.19664
0.908009
0.735108
0.605694
0.640961
0.655777
0.830185
1.04593
1.3377
1.80041
2.2249
2.75472
3.41005
4.08186
4.8948
5.5113
2.49317
2.02531
1.60699
1.23093
0.849887
0.609415
0.538343
0.478952
0.360886
0.45765
0.619404
0.724745
0.992896
1.28256
1.67685
2.10692
2.64766
3.14763
3.75505
4.2274
1.77722
1.39429
1.13458
0.836911
0.624153
0.446457
0.415117
0.263104
0.265544
0.350627
0.404395
0.567118
0.742344
0.943652
1.15227
1.43459
1.88689
2.23815
2.65463
2.98784
1.0299
0.762046
0.67053
0.528333
0.360469
0.186829
0.171115
0.16848
0.176305
0.193582
0.184451
0.274976
0.429046
0.49741
0.74741
0.890154
1.08846
1.31289
1.56332
1.77346
0.33997
0.368046
0.246379
0.113494
0.209429
0.101087
0.0882126
0.0593955
0.0523901
0.0359913
0.0829716
0.0311455
0.0781453
0.159115
0.263095
0.311652
0.301982
0.466917
0.526855
0.606296
8.41924
7.4629
6.52491
5.56647
4.77192
4.31221
3.97701
3.83714
3.68864
3.83015
4.1277
4.52483
5.03645
5.72492
6.49808
7.45848
8.55121
9.71408
11.0251
12.3091
7.06443
6.23117
5.34227
4.64494
4.00058
3.58601
3.2215
3.07354
3.03526
3.20004
3.44483
3.66607
4.16768
4.71145
5.42466
6.24172
7.16913
8.31085
9.42078
10.3815
5.83638
5.20886
4.45959
3.77471
3.31577
2.90137
2.56208
2.46219
2.50664
2.48533
2.69127
2.97328
3.35437
3.87636
4.45902
5.22174
5.93493
6.93609
7.79013
8.64926
4.693
4.13289
3.51608
3.04237
2.60646
2.27616
2.02938
1.94183
1.94589
2.03617
2.11253
2.34499
2.65135
3.06692
3.59712
4.17872
4.73746
5.51595
6.30481
6.94366
3.5969
3.22192
2.69892
2.27008
2.00687
1.73696
1.57847
1.4127
1.43211
1.53607
1.61098
1.76526
2.03982
2.30161
2.70916
3.15393
3.6339
4.20483
4.7829
5.37182
2.56495
2.20246
1.94754
1.56948
1.38337
1.23624
1.07565
0.977378
1.01131
1.05751
1.0828
1.23346
1.43731
1.66634
1.98794
2.253
2.59474
3.01984
3.39019
3.83959
1.57989
1.3307
1.14213
0.988208
0.793234
0.720732
0.576568
0.618452
0.625491
0.583846
0.714341
0.704289
0.832124
1.00105
1.10694
1.2878
1.61754
1.75311
2.07144
2.24404
0.525256
0.458892
0.327491
0.310344
0.28535
0.28827
0.225396
0.161475
0.21865
0.193693
0.281875
0.260067
0.220571
0.325757
0.401579
0.428334
0.527458
0.569848
0.668556
0.735343
10.8485
9.96356
8.97329
8.04108
7.30226
6.69997
6.32949
6.08293
6.06866
6.16657
6.40891
6.82479
7.26498
8.12602
8.82644
9.87078
10.9599
12.259
13.5306
14.7845
9.28367
8.40565
7.45174
6.70714
6.06083
5.58913
5.24763
5.11133
4.98169
5.12369
5.36448
5.62145
6.19931
6.67185
7.42069
8.28574
9.23315
10.2893
11.5094
12.5065
7.62799
6.89317
6.22549
5.52217
5.00355
4.54508
4.28258
4.09248
4.08877
4.19107
4.26393
4.59705
4.99859
5.56326
6.15625
6.85337
7.71638
8.57253
9.57213
10.32
6.14466
5.48903
4.93524
4.39445
3.91918
3.63353
3.40881
3.25104
3.19826
3.26138
3.42275
3.62475
3.93056
4.39215
4.86409
5.48179
6.14915
6.93445
7.71483
8.37665
4.67033
4.26749
3.82078
3.32479
3.00506
2.83326
2.59575
2.4578
2.45898
2.52645
2.5449
2.78811
3.09342
3.41389
3.76089
4.15829
4.69623
5.35361
5.90297
6.42715
3.3176
3.02824
2.65344
2.34848
2.10458
1.90483
1.7694
1.71219
1.71443
1.69312
1.79676
1.9762
2.10469
2.4119
2.66931
2.98448
3.28895
3.73639
4.16366
4.55665
2.02324
1.84511
1.54532
1.40121
1.24459
1.15902
1.12
1.05471
0.982639
1.03453
1.04726
1.14242
1.30361
1.41892
1.57284
1.68534
2.04546
2.21024
2.41188
2.70337
0.71443
0.574168
0.514666
0.52981
0.412019
0.351013
0.332842
0.329827
0.335217
0.37729
0.362368
0.396201
0.407676
0.473376
0.475996
0.532213
0.685708
0.797082
0.856415
0.852649
12.9774
11.99
10.9322
10.0092
9.25596
8.66906
8.25276
8.02158
7.9441
8.1272
8.32435
8.71264
9.27522
9.94977
10.7855
11.771
12.8496
14.1084
15.5092
16.7598
10.8907
10.0349
9.15955
8.27888
7.70258
7.18353
6.80279
6.65213
6.64709
6.60938
6.87362
7.18073
7.65769
8.27139
9.00383
9.89933
10.8971
11.9358
13.1052
14.1326
9.06034
8.24932
7.48105
6.80862
6.22291
5.8641
5.52984
5.39514
5.21557
5.38805
5.53448
5.80694
6.29416
6.73814
7.42813
8.05599
8.99079
9.84776
10.8596
11.7937
7.24177
6.61353
6.00267
5.43848
5.01084
4.60419
4.34691
4.19215
4.14354
4.24692
4.38613
4.66302
4.96531
5.36619
5.90696
6.51558
7.11319
7.95143
8.75604
9.35991
5.51606
5.0694
4.60808
4.18257
3.74989
3.43279
3.35024
3.247
3.12528
3.198
3.3342
3.50881
3.76652
4.08466
4.51014
4.91898
5.45499
6.08238
6.68947
7.22796
3.8941
3.58977
3.22036
2.84294
2.67662
2.44538
2.24916
2.20058
2.1517
2.16339
2.2802
2.51379
2.63284
2.82332
3.14725
3.52338
3.81272
4.30552
4.6903
5.06501
2.32593
2.09418
1.87885
1.81717
1.6593
1.48569
1.35324
1.33621
1.2769
1.32052
1.3907
1.47564
1.58687
1.73972
1.8665
2.15861
2.33548
2.56818
2.88337
3.07081
0.810626
0.722819
0.59549
0.621952
0.492117
0.439698
0.523395
0.44358
0.475365
0.422473
0.453001
0.48863
0.563705
0.588857
0.610072
0.767072
0.772631
0.874122
0.938388
0.981307
)
;

boundaryField
{
    hotSide
    {
        type            calculated;
        value           nonuniform List<scalar> 
400
(
-0.148278
-0.921606
-1.89822
-2.8342
-3.39988
-3.89831
-4.278
-4.39576
-4.1498
-3.61154
-2.90798
-1.91418
-0.588136
0.962072
2.87533
5.02074
7.36455
9.98864
12.4706
14.6561
-0.245166