/*--------------------------------*- C++ -*----------------------------------*\
| =========                 |                                                 |
| \\      /  F ield         | OpenFOAM: The Open Source CFD Toolbox           |
|  \\    /   O peration     | Version:  2212                                  |
|   \\  /    A nd           | Website:  www.openfoam.com                      |
|    \\/     M anipulation  |                                                 |
\*---------------------------------------------------------------------------*/
FoamFile
{
    version     2.0;
    format      ascii;
    arch        "LSB;label=32;scalar=64";
    class       volScalarField;
    location    "0";
    object      T;
}
// * * * * * * * * * * * * * * * * * * * * * * * * * * * * * * * * * * * * * //

dimensions      [0 0 0 1 0 0 0];

internalField   nonuniform List<scalar> 
3200
(
342.09
340.353
339.22
338.795
338.481
338.784
339.178
339.572
340.184
340.553
340.555
340.649
340.664
340.448
340.379
340.296
340.568
341.414
342.539
343.899
336.311
334.833
333.852
333.496
333.234
333.485
333.825
334.168
334.707
335.02
334.982
335.093
335.092
334.87
334.84
334.754
334.989
335.697
336.654
337.762
330.596
329.397
328.544
328.253
328.047
328.226
328.527
328.824
329.288
329.548
329.495
329.588
329.582
329.383
329.375
329.281
329.464
330.06
330.849
331.746
324.944
323.993
323.278
323.059
322.911
323.015
323.267
323.52
323.928
324.11
324.066
324.144
324.138
323.979
323.973
323.87
324.022
324.492
325.141
325.851
319.35
318.632
318.064
317.914
317.812
317.853
318.055
318.239
318.572
318.705
318.69
318.743
318.74
318.636
318.595
318.511
318.662
318.979
319.499
320.041
313.804
313.279
312.91
312.784
312.718
312.704
312.871
312.985
313.224
313.339
313.345
313.368
313.353
313.306
313.27
313.189
313.308
313.53
313.895
314.276
308.292
307.949
307.758
307.678
307.634
307.615
307.708
307.778
307.926
307.999
308.009
308.005
308.024
307.989
307.963
307.904
307.974
308.116
308.34
308.557
302.781
302.652
302.6
302.566
302.557
302.545
302.58
302.605
302.651
302.679
302.685
302.676
302.691
302.677
302.667
302.655
302.674
302.712
302.802
302.865
342.29
340.594
339.433
338.994
338.844
338.987
339.367
339.85
340.464
340.821
341.005
341.062
340.989
340.865
340.751
340.537
340.794
341.557
342.655
344.191
336.486
335.071
334.033
333.668
333.555
333.669
333.991
334.411
334.94
335.259
335.409
335.452
335.383
335.271
335.142
334.978
335.186
335.846
336.774
338.043
330.727
329.587
328.712
328.369
328.302
328.392
328.684
329.038
329.454
329.759
329.866
329.91
329.848
329.74
329.617
329.467
329.646
330.2
330.955
332.013
325.057
324.148
323.431
323.134
323.112
323.174
323.423
323.698
324.015
324.272
324.388
324.417
324.375
324.264
324.159
324.024
324.171
324.628
325.221
326.082
319.444
318.755
318.189
317.95
317.949
318
318.189
318.395
318.628
318.829
318.913
318.99
318.927
318.828
318.752
318.632
318.751
319.103
319.546
320.212
313.85
313.374
312.998
312.805
312.816
312.852
312.991
313.118
313.288
313.405
313.475
313.55
313.49
313.428
313.383
313.304
313.374
313.624
313.944
314.395
308.317
308.029
307.793
307.695
307.682
307.718
307.784
307.884
307.98
308.031
308.074
308.132
308.112
308.04
308.021
307.995
308.03
308.172
308.378
308.618
302.793
302.682
302.623
302.573
302.578
302.584
302.61
302.654
302.673
302.685
302.7
302.726
302.721
302.683
302.682
302.681
302.685
302.737
302.815
302.895
342.482
341.052
339.915
339.46
339.248
339.457
339.88
340.465
341.059
341.411
341.654
341.751
341.577
341.341
341.219
340.968
341.191
341.915
343.105
344.509
336.638
335.436
334.497
334.109
333.894
334.067
334.432
334.925
335.484
335.75
335.947
336.072
335.9
335.673
335.559
335.335
335.509
336.159
337.138
338.321
330.875
329.895
329.109
328.782
328.609
328.746
329.067
329.453
329.939
330.142
330.309
330.435
330.273
330.073
329.956
329.78
329.91
330.471
331.268
332.232
325.188
324.411
323.739
323.498
323.356
323.452
323.722
324.044
324.434
324.589
324.721
324.85
324.702
324.52
324.436
324.273
324.396
324.849
325.474
326.251
319.562
318.953
318.414
318.233
318.137
318.21
318.433
318.658
318.962
319.076
319.169
319.293
319.161
319.027
318.976
318.838
318.932
319.275
319.757
320.343
313.948
313.516
313.152
313.008
312.955
312.989
313.153
313.317
313.516
313.576
313.665
313.752
313.655
313.571
313.527
313.436
313.494
313.743
314.09
314.505
308.374
308.113
307.887
307.805
307.783
307.791
307.881
308
308.103
308.139
308.208
308.264
308.184
308.129
308.114
308.053
308.092
308.232
308.463
308.694
302.802
302.727
302.66
302.62
302.605
302.605
302.641
302.679
302.711
302.73
302.764
302.776
302.739
302.719
302.715
302.697
302.7
302.751
302.839
302.91
343.174
341.812
340.661
340.04
339.926
340.144
340.617
341.248
341.753
342.178
342.44
342.43
342.424
342.174
341.923
341.7
341.981
342.572
343.675
345.026
337.226
336.089
335.119
334.582
334.497
334.692
335.075
335.629
336.039
336.403
336.638
336.623
336.608
336.402
336.169
335.975
336.203
336.714
337.649
338.776
331.386
330.439
329.632
329.202
329.111
329.295
329.587
330.078
330.419
330.7
330.911
330.895
330.849
330.691
330.487
330.341
330.513
330.944
331.729
332.632
325.596
324.825
324.208
323.828
323.757
323.913
324.14
324.556
324.832
325.048
325.233
325.205
325.144
325.045
324.874
324.752
324.868
325.225
325.882
326.576
319.854
319.268
318.793
318.489
318.444
318.577
318.739
319.076
319.287
319.426
319.585
319.558
319.49
319.428
319.326
319.208
319.279
319.543
320.063
320.602
314.155
313.731
313.408
313.187
313.161
313.27
313.372
313.636
313.763
313.838
313.971
313.943
313.897
313.839
313.791
313.687
313.765
313.935
314.293
314.672
308.497
308.234
308.039
307.924
307.897
307.965
308.021
308.193
308.246
308.291
308.392
308.374
308.32
308.291
308.283
308.201
308.256
308.35
308.561
308.795
302.84
302.767
302.687
302.669
302.641
302.662
302.677
302.749
302.758
302.781
302.817
302.803
302.787
302.786
302.768
302.749
302.761
302.795
302.871
302.941
344.092
342.737
341.63
340.991
340.957
341.128
341.545
342.117
342.693
343.1
343.45
343.323
343.225
343.081
342.719
342.621
342.856
343.417
344.398
345.838
338.015
336.885
335.958
335.395
335.38
335.517
335.879
336.353
336.833
337.214
337.497
337.397
337.29
337.183
336.837
336.778
336.969
337.445
338.278
339.446
332.044
331.126
330.339
329.84
329.822
329.967
330.268
330.652
331.065
331.378
331.618
331.541
331.424
331.36
331.039
331.017
331.161
331.535
332.258
333.193
326.15
325.435
324.778
324.354
324.319
324.45
324.705
325.008
325.332
325.61
325.81
325.732
325.616
325.575
325.325
325.314
325.402
325.709
326.3
327.01
320.303
319.764
319.233
318.902
318.883
318.966
319.179
319.419
319.667
319.883
320.051
319.95
319.892
319.871
319.665
319.641
319.693
319.937
320.425
320.914
314.49
314.098
313.713
313.489
313.479
313.528
313.677
313.851
314.024
314.187
314.313
314.223
314.184
314.192
314.024
314.013
314.041
314.215
314.554
314.9
308.69
308.461
308.23
308.079
308.077
308.113
308.192
308.303
308.415
308.514
308.586
308.523
308.499
308.517
308.42
308.385
308.429
308.52
308.725
308.935
302.911
302.83
302.756
302.705
302.705
302.723
302.737
302.784
302.821
302.854
302.875
302.856
302.848
302.852
302.822
302.802
302.826
302.85
302.923
302.997
345.284
343.873
342.805
342.125
342.117
342.254
342.744
343.108
343.721
344.312
344.538
344.528
344.32
344.296
343.948
343.743
344.015
344.576
345.53
346.952
339.051
337.87
336.998
336.393
336.376
336.486
336.933
337.211
337.74
338.236
338.45
338.43
338.255
338.222
337.921
337.76
337.951
338.435
339.247
340.435
332.899
331.95
331.249
330.701
330.687
330.783
331.166
331.389
331.829
332.242
332.438
332.388
332.266
332.234
331.967
331.849
331.979
332.377
333.085
334.042
326.833
326.085
325.514
325.071
325.03
325.141
325.42
325.615
325.973
326.304
326.472
326.438
326.334
326.29
326.078
325.999
326.083
326.383
326.982
327.73
320.831
320.256
319.819
319.461
319.427
319.544
319.733
319.876
320.152
320.418
320.521
320.512
320.46
320.394
320.213
320.186
320.245
320.453
320.926
321.474
314.855
314.441
314.137
313.877
313.855
313.959
314.09
314.168
314.369
314.55
314.617
314.617
314.608
314.549
314.409
314.409
314.441
314.591
314.906
315.295
308.91
308.639
308.49
308.316
308.318
308.371
308.437
308.501
308.598
308.73
308.761
308.762
308.769
308.735
308.639
308.658
308.671
308.76
308.932
309.149
302.982
302.889
302.843
302.782
302.787
302.809
302.823
302.847
302.879
302.93
302.939
302.936
302.93
302.931
302.888
302.911
302.901
302.927
302.991
303.058
346.473
345.207
344.166
343.346
343.187
343.545
344.111
344.382
345.157
345.378
345.791
345.845
345.61
345.532
345.092
344.993
345.207
345.804
346.85
348.157
340.084
339.046
338.159
337.427
337.29
337.615
338.103
338.333
339.007
339.16
339.516
339.572
339.36
339.304
338.919
338.81
338.996
339.502
340.418
341.476
333.796
332.936
332.202
331.575
331.455
331.73
332.137
332.345
332.907
332.998
333.319
333.367
333.197
333.15
332.806
332.714
332.87
333.293
334.074
334.91
327.576
326.897
326.31
325.79
325.661
325.91
326.22
326.384
326.876
326.896
327.182
327.208
327.093
327.075
326.769
326.692
326.824
327.155
327.794
328.443
321.406
320.912
320.472
320.027
319.919
320.128
320.328
320.479
320.87
320.886
321.104
321.092
321.026
321.017
320.774
320.706
320.821
321.081
321.568
322.032
315.253
314.93
314.636
314.304
314.227
314.376
314.486
314.603
314.899
314.9
315.067
315.024
314.995
314.98
314.835
314.759
314.854
315.041
315.366
315.688
309.139
308.961
308.816
308.59
308.543
308.634
308.677
308.757
308.955
308.941
309.038
309.006
308.999
308.989
308.91
308.865
308.917
309.027
309.215
309.413
303.057
302.999
302.963
302.874
302.862
302.897
302.913
302.932
303.008
303.003
303.03
303.018
303.004
303.012
302.985
302.972
302.989
303.025
303.082
303.165
347.965
346.682
345.548
344.87
344.648
344.849
345.297
345.76
346.299
346.643
346.976
347.191
346.988
346.746
346.482
346.376
346.526
347.129
348.249
349.452
341.363
340.325
339.323
338.724
338.56
338.733
339.124
339.498
339.973
340.253
340.574
340.732
340.558
340.344
340.122
340.028
340.162
340.636
341.633
342.58
334.858
334.02
333.185
332.653
332.519
332.665
333.015
333.319
333.724
333.929
334.232
334.333
334.205
334.014
333.813
333.747
333.844
334.237
335.08
335.838
328.413
327.769
327.095
326.656
326.532
326.686
326.943
327.168
327.52
327.682
327.939
327.979
327.924
327.765
327.573
327.528
327.613
327.896
328.597
329.19
322.035
321.563
321.039
320.683
320.579
320.746
320.925
321.074
321.381
321.509
321.698
321.693
321.693
321.572
321.379
321.358
321.428
321.661
322.166
322.633
315.733
315.372
314.998
314.738
314.643
314.818
314.933
315.036
315.267
315.369
315.483
315.468
315.484
315.42
315.242
315.237
315.275
315.438
315.807
316.148
309.436
309.234
308.995
308.851
308.769
308.896
308.954
309.031
309.169
309.234
309.268
309.276
309.32
309.266
309.144
309.127
309.177
309.265
309.479
309.686
303.153
303.099
303.016
302.966
302.937
302.967
302.998
303.031
303.08
303.103
303.098
303.109
303.139
303.11
303.064
303.056
303.075
303.103
303.174
303.244
349.602
348.357
347.208
346.371
346.209
346.288
346.744
347.133
347.587
347.956
348.373
348.506
348.431
348.183
347.875
347.729
347.948
348.498
349.632
350.812
342.788
341.748
340.74
340.029
339.909
339.97
340.372
340.697
341.082
341.417
341.746
341.874
341.823
341.602
341.316
341.183
341.34
341.806
342.802
343.777
336.074
335.19
334.344
333.776
333.669
333.728
334.08
334.308
334.645
334.909
335.184
335.295
335.256
335.082
334.842
334.73
334.835
335.231
336.059
336.836
329.433
328.711
328.029
327.561
327.486
327.541
327.836
327.969
328.278
328.494
328.7
328.806
328.767
328.615
328.413
328.344
328.396
328.744
329.386
330.002
322.847
322.263
321.754
321.398
321.359
321.376
321.628
321.689
321.965
322.116
322.29
322.359
322.323
322.201
322.017
321.995
322.04
322.291
322.783
323.247
316.301
315.866
315.508
315.271
315.252
315.243
315.437
315.47
315.667
315.759
315.88
315.945
315.905
315.826
315.686
315.671
315.714
315.868
316.235
316.59
309.789
309.523
309.286
309.155
309.155
309.134
309.265
309.285
309.414
309.442
309.508
309.579
309.54
309.48
309.399
309.387
309.421
309.494
309.739
309.967
303.289
303.199
303.111
303.061
303.055
303.045
303.106
303.104
303.169
303.154
303.183
303.204
303.193
303.175
303.148
303.131
303.145
303.179
303.262
303.343
351.304
350.035
348.923
348.183
347.893
347.955
348.125
348.554
349.012
349.353
349.853
349.776
349.716
349.554
349.331
349.251
349.576
350.066
351.131
352.391
344.242
343.191
342.257
341.616
341.358
341.432
341.565
341.931
342.283
342.61
343.029
342.985
342.914
342.771
342.581
342.481
342.792
343.187
344.079
345.135
337.294
336.422
335.643
335.126
334.882
334.948
335.085
335.367
335.656
335.924
336.289
336.268
336.187
336.038
335.917
335.798
336.066
336.398
337.132
337.985
330.391
329.708
329.11
328.67
328.449
328.51
328.648
328.869
329.094
329.301
329.611
329.593
329.53
329.381
329.299
329.194
329.405
329.676
330.249
330.93
323.576
323.057
322.605
322.256
322.091
322.13
322.256
322.425
322.586
322.734
322.976
323
322.92
322.776
322.734
322.638
322.804
323.029
323.45
323.95
316.814
316.458
316.137
315.879
315.758
315.8
315.881
316.007
316.119
316.208
316.385
316.422
316.353
316.225
316.229
316.139
316.243
316.42
316.699
317.049
310.08
309.879
309.696
309.543
309.436
309.487
309.533
309.607
309.687
309.736
309.834
309.853
309.823
309.716
309.747
309.661
309.748
309.846
309.998
310.225
303.381
303.301
303.252
303.199
303.153
303.172
303.189
303.215
303.247
303.263
303.299
303.301
303.304
303.258
303.275
303.227
303.272
303.301
303.334
303.417
352.966
351.791
350.769
349.944
349.652
349.536
349.762
350.101
350.438
350.793
351.033
351.125
351.115
350.862
350.843
350.882
351.193
351.612
352.613
353.861
345.7
344.732
343.844
343.133
342.872
342.791
342.977
343.278
343.566
343.859
344.041
344.115
344.124
343.891
343.899
343.882
344.169
344.531
345.354
346.398
338.541
337.743
336.973
336.396
336.175
336.089
336.252
336.515
336.746
336.986
337.144
337.207
337.217
337.005
337.034
336.98
337.232
337.516
338.212
339.071
331.444
330.811
330.159
329.689
329.524
329.471
329.595
329.789
330.009
330.194
330.302
330.355
330.357
330.187
330.217
330.161
330.361
330.579
331.153
331.846
324.419
323.922
323.411
323.031
322.919
322.872
322.998
323.115
323.324
323.46
323.512
323.555
323.564
323.426
323.437
323.392
323.552
323.708
324.167
324.692
317.431
317.063
316.704
316.427
316.361
316.314
316.407
316.496
316.647
316.745
316.775
316.786
316.809
316.698
316.705
316.661
316.805
316.881
317.241
317.577
310.457
310.24
310.009
309.871
309.805
309.773
309.836
309.882
309.99
310.057
310.072
310.062
310.084
310.014
310.023
309.994
310.096
310.081
310.329
310.526
303.504
303.431
303.354
303.296
303.267
303.277
303.285
303.311
303.345
303.36
303.372
303.383
303.372
303.365
303.358
303.349
303.384
303.368
303.466
303.536
354.613
353.631
352.479
351.718
351.289
351.14
351.363
351.649
352.014
352.264
352.472
352.485
352.462
352.151
352.271
352.43
352.743
353.195
354.253
355.396
347.107
346.308
345.315
344.648
344.266
344.163
344.372
344.608
344.891
345.115
345.26
345.307
345.277
345.015
345.131
345.241
345.507
345.868
346.77
347.739
339.688
339.063
338.22
337.666
337.331
337.247
337.425
337.668
337.862
338.061
338.135
338.213
338.176
337.978
338.059
338.123
338.364
338.66
339.413
340.187
332.355
331.855
331.187
330.743
330.452
330.413
330.554
330.768
330.907
331.057
331.107
331.187
331.179
330.983
331.05
331.077
331.305
331.524
332.13
332.747
325.103
324.724
324.202
323.854
323.633
323.615
323.717
323.894
324
324.129
324.137
324.228
324.214
324.052
324.1
324.129
324.29
324.459
324.951
325.406
317.91
317.645
317.276
317.035
316.854
316.835
316.934
317.046
317.112
317.231
317.204
317.306
317.276
317.168
317.191
317.22
317.323
317.453
317.81
318.135
310.752
310.586
310.364
310.232
310.087
310.087
310.179
310.248
310.272
310.354
310.3
310.385
310.359
310.301
310.315
310.333
310.392
310.466
310.683
310.889
303.602
303.542
303.461
303.434
303.364
303.388
303.422
303.435
303.438
303.468
303.446
303.485
303.462
303.45
303.458
303.465
303.483
303.508
303.57
303.653
356.538
355.376
354.282
353.405
353.129
352.825
352.951
353.15
353.496
353.667
353.964
353.932
353.887
353.743
353.819
353.945
354.291
354.905
355.919
356.989
348.776
347.803
346.857
346.11
345.88
345.601
345.72
345.911
346.173
346.334
346.562
346.569
346.525
346.375
346.423
346.563
346.834
347.365
348.203
349.094
341.122
340.319
339.508
338.898
338.707
338.455
338.562
338.729
338.927
339.083
339.262
339.267
339.237
339.097
339.104
339.275
339.484
339.892
340.593
341.329
333.562
332.902
332.219
331.754
331.591
331.383
331.472
331.606
331.758
331.908
332.024
332.055
332.01
331.879
331.874
332.066
332.194
332.508
333.072
333.673
326.052
325.531
324.998
324.66
324.52
324.359
324.451
324.531
324.652
324.783
324.864
324.902
324.852
324.744
324.726
324.881
324.977
325.207
325.639
326.096
318.583
318.225
317.823
317.605
317.493
317.401
317.468
317.491
317.571
317.684
317.745
317.776
317.733
317.643
317.629
317.753
317.797
317.958
318.27
318.591
311.149
310.948
310.681
310.566
310.484
310.458
310.485
310.488
310.536
310.625
310.651
310.652
310.634
310.579
310.579
310.644
310.669
310.773
310.958
311.158
303.733
303.672
303.573
303.534
303.514
303.511
303.51
303.502
303.527
303.564
303.565
303.554
303.575
303.545
303.538
303.573
303.576
303.612
303.656
303.745
358.36
357.161
356.151
355.265
354.921
354.63
354.632
354.653
354.981
355.193
355.399
355.423
355.388
355.359
355.257
355.509
355.809
356.562
357.492
358.576
350.353
349.359
348.488
347.698
347.438
347.192
347.186
347.203
347.484
347.654
347.821
347.856
347.828
347.777
347.662
347.92
348.157
348.804
349.561
350.503
342.45
341.636
340.897
340.237
339.997
339.834
339.798
339.816
340.03
340.196
340.31
340.323
340.349
340.282
340.166
340.406
340.598
341.128
341.737
342.538
334.617
333.987
333.36
332.833
332.625
332.537
332.451
332.514
332.641
332.801
332.876
332.893
332.936
332.882
332.761
332.964
333.129
333.528
334.009
334.669
326.878
326.399
325.871
325.495
325.336
325.295
325.182
325.25
325.339
325.461
325.495
325.51
325.558
325.527
325.439
325.583
325.719
326.013
326.364
326.892
319.178
318.836
318.451
318.187
318.076
318.07
317.966
318.048
318.085
318.155
318.184
318.177
318.241
318.226
318.152
318.255
318.354
318.555
318.793
319.172
311.506
311.295
311.06
310.915
310.83
310.848
310.774
310.827
310.859
310.879
310.925
310.908
310.957
310.94
310.909
310.963
311.01
311.133
311.262
311.501
303.861
303.776
303.7
303.653
303.619
303.631
303.614
303.634
303.636
303.637
303.658
303.656
303.66
303.666
303.667
303.682
303.682
303.726
303.772
303.856
360.331
359.116
358.036
357.113
356.645
356.47
356.267
356.215
356.472
356.701
356.766
356.886
356.93
356.868
356.883
357.174
357.445
358.17
359.159
360.3
352.046
351.019
350.1
349.309
348.918
348.755
348.591
348.52
348.745
348.948
348.998
349.109
349.125
349.084
349.105
349.328
349.558
350.178
351.011
351.956
343.859
343.015
342.24
341.585
341.266
341.118
340.994
340.919
341.096
341.288
341.308
341.404
341.425
341.387
341.389
341.566
341.764
342.294
342.986
343.755
335.784
335.101
334.445
333.926
333.663
333.539
333.455
333.395
333.521
333.695
333.693
333.796
333.784
333.734
333.752
333.902
334.049
334.468
335.028
335.649
327.759
327.225
326.733
326.328
326.124
326.043
325.965
325.912
325.987
326.152
326.166
326.214
326.213
326.172
326.186
326.298
326.424
326.73
327.172
327.656
319.811
319.428
319.063
318.794
318.612
318.586
318.51
318.486
318.514
318.633
318.66
318.687
318.664
318.67
318.665
318.758
318.847
319.045
319.391
319.712
311.887
311.658
311.438
311.273
311.151
311.15
311.117
311.088
311.106
311.147
311.198
311.218
311.186
311.209
311.19
311.232
311.291
311.409
311.639
311.812
303.981
303.908
303.834
303.763
303.729
303.739
303.713
303.718
303.726
303.727
303.756
303.765
303.742
303.746
303.742
303.763
303.789
303.825
303.894
303.961
362.075
360.925
359.793
359.008
358.414
358.057
357.852
357.855
357.968
358.092
358.225
358.305
358.288
358.385
358.426
358.738
359.086
359.808
360.874
361.988
353.551
352.606
351.628
350.929
350.432
350.112
349.938
349.961
350.029
350.136
350.256
350.347
350.303
350.393
350.405
350.688
350.966
351.593
352.485
353.432
345.111
344.354
343.539
342.946
342.52
342.273
342.116
342.134
342.181
342.288
342.384
342.459
342.412
342.483
342.492
342.722
342.973
343.479
344.236
344.994
336.761
336.187
335.514
335.049
334.698
334.495
334.363
334.395
334.39
334.517
334.593
334.646
334.589
334.655
334.652
334.831
335.04
335.438
336.064
336.68
328.511
328.08
327.543
327.214
326.918
326.777
326.667
326.695
326.669
326.799
326.855
326.897
326.853
326.889
326.865
327.036
327.185
327.487
327.973
328.428
320.327
320.023
319.645
319.427
319.191
319.106
319.018
319.043
319.011
319.125
319.161
319.185
319.162
319.189
319.153
319.292
319.359
319.596
319.936
320.244
312.202
311.996
311.789
311.668
311.52
311.456
311.405
311.427
311.392
311.47
311.489
311.482
311.498
311.51
311.488
311.575
311.601
311.747
311.956
312.135
304.089
304.021
303.938
303.907
303.857
303.837
303.823
303.832
303.823
303.833
303.841
303.833
303.856
303.859
303.844
303.873
303.894
303.929
304.006
304.065
363.882
362.714
361.629
360.837
360.25
359.875
359.504
359.485
359.498
359.565
359.768
359.853
359.685
359.809
359.927
360.306
360.874
361.616
362.442
363.576
355.084
354.118
353.174
352.503
351.986
351.679
351.344
351.336
351.364
351.388
351.596
351.681
351.513
351.596
351.69
352.022
352.505
353.168
353.831
354.796
346.412
345.627
344.841
344.27
343.834
343.587
343.288
343.288
343.299
343.325
343.514
343.593
343.417
343.483
343.545
343.827
344.246
344.826
345.355
346.149
337.828
337.211
336.591
336.134
335.758
335.548
335.312
335.321
335.329
335.331
335.469
335.576
335.412
335.439
335.499
335.748
336.08
336.58
336.983
337.601
329.307
328.854
328.407
328.049
327.759
327.585
327.412
327.422
327.424
327.426
327.506
327.604
327.482
327.479
327.515
327.727
327.976
328.391
328.662
329.16
320.896
320.566
320.281
320.019
319.807
319.677
319.56
319.55
319.55
319.569
319.61
319.689
319.584
319.611
319.626
319.767
319.955
320.234
320.41
320.795
312.543
312.341
312.176
312.022
311.89
311.79
311.722
311.727
311.719
311.743
311.769
311.814
311.746
311.768
311.767
311.88
311.989
312.132
312.233
312.483
304.202
304.129
304.089
304.027
303.978
303.949
303.921
303.934
303.939
303.932
303.946
303.958
303.936
303.946
303.941
303.98
304.016
304.066
304.095
304.193
365.569
364.525
363.556
362.748
362.034
361.541
361.174
361.068
361.013
361.053
361.119
361.337
361.288
361.283
361.381
361.904
362.563
363.247
364.251
365.274
356.545
355.664
354.856
354.155
353.538
353.099
352.792
352.711
352.657
352.689
352.743
352.922
352.873
352.879
352.939
353.398
354
354.536
355.393
356.261
347.651
346.933
346.238
345.674
345.145
344.788
344.489
344.446
344.399
344.413
344.484
344.603
344.548
344.588
344.615
345.01
345.511
345.964
346.68
347.372
338.871
338.271
337.733
337.275
336.837
336.526
336.281
336.256
336.227
336.217
336.28
336.377
336.331
336.406
336.374
336.702
337.115
337.474
338.036
338.573
330.146
329.701
329.3
328.955
328.587
328.339
328.143
328.123
328.108
328.106
328.158
328.214
328.186
328.272
328.215
328.476
328.794
329.074
329.494
329.903
321.503
321.193
320.922
320.655
320.387
320.202
320.061
320.054
320.061
320.053
320.085
320.111
320.081
320.183
320.115
320.307
320.522
320.724
321.023
321.32
312.899
312.688
312.565
312.387
312.224
312.108
312.048
312.027
312.042
312.036
312.031
312.067
312.037
312.126
312.049
312.174
312.302
312.423
312.608
312.788
304.32
304.238
304.217
304.144
304.101
304.055
304.045
304.038
304.035
304.034
304.022
304.04
304.029
304.067
304.031
304.076
304.115
304.154
304.226
304.286
367.253
366.09
365.24
364.485
363.646
363.081
362.744
362.617
362.594
362.466
362.565
362.637
362.646
362.773
362.857
363.378
364.009
364.699
365.812
366.718
357.976
356.983
356.274
355.64
354.928
354.423
354.137
354.048
353.998
353.869
353.997
354.05
354.036
354.148
354.197
354.631
355.205
355.769
356.73
357.46
348.836
348.005
347.442
346.887
346.298
345.871
345.605
345.59
345.498
345.381
345.532
345.567
345.518
345.631
345.647
345.977
346.489
346.965
347.784
348.348
339.799
339.136
338.7
338.233
337.747
337.429
337.156
337.173
337.101
337.014
337.122
337.182
337.103
337.219
337.208
337.456
337.884
338.269
338.946
339.364
330.869
330.373
330.037
329.647
329.291
329.06
328.809
328.819
328.778
328.719
328.791
328.853
328.767
328.872
328.851
329.045
329.393
329.665
330.205
330.522
322.003
321.656
321.434
321.14
320.891
320.737
320.529
320.56
320.511
320.466
320.531
320.559
320.494
320.588
320.564
320.713
320.978
321.135
321.535
321.761
313.195
312.994
312.859
312.672
312.523
312.448
312.32
312.31
312.324
312.284
312.308
312.326
312.29
312.344
312.343
312.447
312.591
312.676
312.922
313.056
304.414
304.346
304.31
304.241
304.193
304.17
304.126
304.114
304.132
304.113
304.126
304.138
304.117
304.135
304.136
304.169
304.214
304.248
304.327
304.371
368.296
367.288
366.489
365.581
364.888
364.236
363.874
363.827
363.616
363.585
363.69
363.688
363.705
363.916
364.027
364.46
365.254
365.81
367.034
367.905
358.777
357.954
357.285
356.513
355.937
355.365
355.024
355.017
354.809
354.792
354.893
354.898
354.898
355.077
355.153
355.51
356.184
356.679
357.727
358.43
349.466
348.772
348.218
347.597
347.115
346.625
346.311
346.332
346.136
346.118
346.238
346.239
346.223
346.386
346.439
346.714
347.291
347.723
348.554
349.138
340.305
339.742
339.311
338.804
338.373
338.004
337.725
337.754
337.598
337.579
337.678
337.709
337.661
337.816
337.855
338.044
338.523
338.892
339.546
340.006
331.238
330.816
330.494
330.096
329.708
329.474
329.245
329.249
329.162
329.127
329.21
329.235
329.177
329.336
329.381
329.471
329.867
330.16
330.654
330.988
322.243
321.952
321.751
321.443
321.156
320.999
320.838
320.833
320.783
320.758
320.81
320.845
320.775
320.906
320.957
320.993
321.278
321.508
321.841
322.069
313.328
313.151
313.056
312.854
312.675
312.586
312.491
312.488
312.464
312.445
312.473
312.505
312.459
312.531
312.572
312.569
312.76
312.907
313.071
313.234
304.455
304.401
304.376
304.311
304.243
304.218
304.182
304.179
304.175
304.164
304.184
304.19
304.177
304.193
304.216
304.209
304.277
304.341
304.376
304.444
)
;

boundaryField
{
    hotSide
    {
        type            fixedGradient;
        gradient        nonuniform List<scalar> 
400
(
472.104
472.698
476.542
483.571
493.497
505.897
520.313
536.324
553.577
571.792
590.752
610.291
630.281
650.624
671.243
692.077
713.078
734.205
755.434
776.747
448.754
449.413
453.548
461.078
471.657
484.785
499.941
516.661
534.57
553.377
572.863
592.866
613.261
633.958
654.885
675.988
697.222
718.554
739.959
761.427
433.719
434.69
439.103
446.875
457.666
470.984
486.315
503.196
521.25
540.184
559.777
579.862
600.319
621.056
642.007
663.12
684.356
705.685
727.087
748.556
426.558
428.062
432.752
440.55
451.172
464.206
479.205
495.748
513.476
532.101
551.4
571.202
591.384
611.854
632.547
653.414
674.42
695.541
716.763
738.082
425.305
427.449
432.446
440.216
450.539
463.095
477.517
493.447
510.558
528.58
547.292
566.528
586.162
606.107
626.299
646.697
667.271
688.004
708.886
729.914
427.75
430.553
435.903
443.718
453.818
465.947
479.804
495.084
511.498
528.795
546.77
565.266
584.17
603.402
622.912
642.669
662.653
682.855
703.269
723.892
432.146
435.583
441.334
449.311
459.35
471.228
484.681
499.434
515.222
531.814
549.022
566.708
584.782
603.189
621.9
640.902
660.192
679.768
699.628
719.772
437.249
441.269
447.449
455.692
465.838
477.671
490.934
505.357
520.678
536.669
553.161
570.044
587.262
604.799
622.66
640.861
659.413
678.327
697.605
717.246
442.167
446.678
453.268
461.833
472.207
484.167
497.444
511.745
526.784
542.324
558.204
574.349
590.753
607.452
624.494
641.925
659.778
678.069
696.804
715.979
446.251
451.106
458.014
466.867
477.496
489.666
503.083
517.417
532.342
547.592
563.011
578.558
594.286
610.286
626.652
643.455
660.742
678.536
696.842
715.652
449.076
454.064
461.114
470.118
480.903
493.225
506.77
521.179
536.089
551.207
566.373
581.575
596.905
612.493
628.46
644.896
661.854
679.36
697.42
716.022
450.479
455.348
462.308
471.251
482.001
494.306
507.849
522.263
537.183
552.313
567.49
582.698
598.025
613.602
629.548
645.956
662.884
680.361
698.394
716.976
450.612
455.113
461.758
470.441
480.979
493.117
506.542
520.905
535.865
551.147
566.582
582.125
597.821
613.759
630.038
646.738
663.916
681.606
699.822
718.562
449.965
453.894
460.07
468.383
478.646
490.597
503.925
518.296
533.396
548.964
564.826
580.899
597.175
613.697
630.525
647.722
665.339
683.411
701.961
720.993
449.374
452.599
458.235
466.18
476.231
488.105
501.474
516.001
531.375
547.338
563.706
580.367
597.274
614.43
631.864
649.619
667.74
686.263
705.215
724.607
450.074
452.525
457.625
465.276
475.243
487.198
500.768
515.585
531.326
547.726
564.591
581.793
599.263
616.978
634.949
653.206
671.788
690.734
710.074
729.823
453.778
455.458
460.063
467.496
477.473
489.593
503.419
518.544
534.623
551.386
568.635
586.238
604.115
622.233
640.592
659.216
678.142
697.412
717.059
737.101
462.617
463.633
467.789
474.99
484.904
497.065
510.984
526.225
542.433
559.339
576.746
594.523
612.589
630.903
649.459
668.276
687.391
706.845
726.675
746.896
478.498
479.074
482.812
489.626
499.182
511.01
524.622
539.584
555.55
572.254
589.506
607.172
625.168
643.448
661.998
680.829
699.969
719.456
739.32
759.574
501.942
502.329
505.673
511.904
520.746
531.801
544.643
558.881
574.192
590.324
607.088
624.349
642.016
660.034
678.377
697.044
716.048
735.414
755.158
775.285
)
;
    }
    coldSide
    {
        type            mixed;
        refValue        uniform 300;
        refGradient     uniform 0;
        valueFraction   uniform 0.991591;
        source          uniform 0;
        value           nonuniform List<scalar> 
400
(
300.023
300.023
300.024
300.024
300.024
300.025
300.026
300.027
300.028
300.028
300.029
300.03
300.031
300.032
300.033
300.034
300.035
300.036
300.037
300.037
300.022
300.023
300.023
300.023
300.024
300.024
300.025
300.026
300.027
300.028
300.029
300.03