/*--------------------------------*- C++ -*----------------------------------*\
| =========                 |                                                 |
| \\      /  F ield         | OpenFOAM: The Open Source CFD Toolbox           |
|  \\    /   O peration     | Version:  2212                                  |
|   \\  /    A nd           | Website:  www.openfoam.com                      |
|    \\/     M anipulation  |                                                 |
\*---------------------------------------------------------------------------*/
FoamFile
{
    version     2.0;
    format      ascii;
    arch        "LSB;label=32;scalar=64";
    class       volScalarField;
    location    "0";
    object      relativeErrorField;
}
// * * * * * * * * * * * * * * * * * * * * * * * * * * * * * * * * * * * * * //

dimensions      [0 0 0 1 0 0 0];

internalField   nonuniform List<scalar> 
3200
(
0.0145228
0.0114723
0.00772611
0.00586561
0.000787911
0.00824322
0.0135998
0.0103828
0.0118983
0.00451289
0.00985342
0.00920045
0.0100546
0.015338
0.0107563
0.00568
0.0094236
0.00363165
2.97908e-05
0.0155348
0.00629619
0.0104276
0.0124843
0.00740287
0.00432652
0.00439686
0.00606729
0.0127552
0.00172648
0.0164611
0.0093751
0.0117986
0.0158541
0.00056783
0.0185275
0.00210624
0.00570311
0.00069357
0.0152582
0.0133381
0.0158937
0.00747151
0.00248439
0.00447732
0.00275361
0.00501684
0.00647402
0.0116711
0.00655169
0.0130161
0.00638685
0.0100329
0.00896642
0.00698402
0.00731473
0.00533995
0.00615672
0.00135189
0.00656903
0.00950237
0.00906288
0.00657219
0.0133767
0.000519894
0.0047069
0.0164316
0.00673867
0.0120256
0.00525302
0.0092581
0.000124796
0.00571101
0.00204118
0.00100341
0.0129606
0.00546566
0.0117409
0.00480964
0.00293793
0.0108873
0.000416406
0.00570292
0.00192078
0.00889497
0.000138357
0.00597753
0.00157314
0.00359998
0.00101349
0.0160237
0.00875383
0.00304854
0.0137854
0.000845428
0.00187012
0.0143421
0.0016279
0.00778614
0.005391
0.00137593
0.0011958
0.00580563
0.00160727
0.00181887
0.00307745
3.99206e-05
0.00228323
0.00514082
0.0068915
0.00329521
0.0054789
0.00256513
0.00261383
0.00359441
0.00699188
0.011788
0.00669079
0.00073757
0.0109054
0.00585077
3.24543e-05
0.00283251
8.17565e-05
0.00160643
0.00448563
0.00411411
0.0040169
0.000213981
0.00775124
0.000596683
0.00720984
0.000424701
0.00116875
0.00474036
0.00187682
0.000398797
0.000848794
0.000579998
0.00870042
0.00494864
0.00340465
0.00211828
0.000639812
0.00247862
0.00272755
0.0028262
0.00129938
0.00506213
0.000233184
0.00457893
0.00687297
0.00270263
0.00518993
0.001768
0.0071701
0.000252289
0.00981257
0.00341245
0.000167689
0.00464834
0.0082955
0.0101424
0.0029171
0.00060924
0.00444145
0.00639851
0.00669952
0.00262163
0.00571112
0.00350616
0.0114272
0.000347643
0.0091588
0.000591853
0.00820217
0.0128141
0.00590542
0.00551861
0.00374724
0.0112124
0.00892447
0.000662668
0.00381769
0.0054383
0.00361354
0.00113735
0.0100213
0.000200828
0.00621332
2.63505e-05
3.09295e-05
0.0057129
0.0021233
0.00960678
0.00162599
0.00203129
0.00197506
0.000545375
0.00084732
0.0128891
0.00576871
0.00168501
0.0090273
0.0138641
0.00827664
0.00623813
0.00257507
0.0100216
0.00282802
0.00610546
0.0101581
0.00255437
0.00364362
0.00533961
0.00180475
0.00810489
0.00758337
0.00576438
0.016015
0.00367275
0.00799538
0.00108939
0.00361171
0.00174871
0.0062834
0.00264927
0.00220659
0.0098229
0.00522441
0.000435089
0.00624515
0.00527086
0.00719035
0.00344083
0.00601008
0.00647892
0.00977794
0.00809059
0.0115406
0.0131395
0.00192403
0.000154143
0.00426147
0.00353898
0.000472345
0.0114822
0.0101618
0.00644469
0.000995841
0.0108834
0.0052702
0.00161674
7.00386e-05
0.0114592
0.00147605
0.00188702
0.00488793
0.00922017
0.00394121
0.00722035
0.000976228
0.00252843
0.00339841
0.0024837
0.00472902
0.00382474
0.0123051
0.00515924
0.000110886
0.00529299
0.00415873
0.00398009
0.000373229
0.0017956
0.000230673
0.00589629
0.00150589
0.000556349
0.00893141
0.00332082
0.00751623
0.00156089
0.0067042
0.0047167
0.00186531
0.00699591
0.00313061
0.00310239
0.00260152
0.00277095
0.00292294
0.00152548
0.000558254
0.011341
0.000693478
0.00629047
0.00560136
0.00369418
0.00307298
0.00400206
0.00414425
0.00261089
0.00199042
0.00144831
0.00180737
0.00132612
0.00331125
0.00837714
0.0127453
0.000489874
0.00469048
0.00809044
0.00270833
0.00571748
0.00300572
0.00336843
0.0030195
0.00625055
0.00678327
0.000948966
0.00635734
0.00134999
0.00280462
0.000103999
0.00508953
0.00272276
0.00607386
0.000708866
0.00798046
0.00973528
0.000590908
0.00568316
0.00275513
0.00808474
0.00141927
0.000576683
0.00169867
0.00445822
0.00957753
0.0128515
0.00343058
0.00173535
0.00129969
0.00781831
0.000233473
0.00187105
0.000427815
0.00931013
0.00338899
0.00129049
0.00540466
0.00594713
0.007521
0.00223471
0.00451677
0.00529708
0.00776513
0.00478841
0.00549644
0.00939349
0.00287666
0.00753819
0.00269303
0.0014004
0.0128621
0.0104657
0.00206533
0.00132453
0.00534196
0.00451659
0.00225338
0.00015456
0.000178404
0.00367101
0.00992822
0.00991218
0.00532402
0.00593666
0.00496758
0.00631945
0.00172363
0.00576987
0.000199237
0.00569641
0.0040666
0.00827785
0.00986916
0.00469765
0.00433226
0.00702321
0.00581594
0.00398727
0.00154783
0.00261859
0.00122658
0.00805875
0.0053046
0.00660484
0.00519154
0.00421461
0.0053187
0.000243491
0.00690131
0.00977687
0.00166812
0.00654729
0.00436044
0.00519892
0.00417083
0.00127913
0.000107948
0.00144766
0.00232936
0.0044512
0.00305679
0.00230402
0.00339976
0.00553168
0.00665422
0.00686415
0.00367443
0.00638603
0.0072043
2.32796e-05
0.00226723
0.00131413
0.00345882
0.00391888
0.00283251
0.00468357
0.00316683
0.00407554
0.00308144
0.00223615
0.000585951
0.00384883
0.00468574
0.00954491
0.00801684
0.00314026
0.00120345
0.00905382
0.00245201
0.0030646
0.0074334
0.00181543
0.00251466
0.00349172
0.00329408
0.00145448
0.00400259
0.00145101
0.0108643
0.00252518
0.00401612
0.00522743
0.000871362
0.00623817
0.00918955
0.00147201
0.00465047
0.00317481
0.000298849
0.00145466
0.00796583
0.00455296
0.000804869
0.00324827
0.001276
0.00632049
0.00291796
0.00135277
0.00526319
0.000744247
0.000499798
0.00565984
0.00882623
0.00424578
0.00333082
0.00333799
0.000777541
0.00351195
0.00394649
0.000928022
0.00146061
0.00865794
0.00279429
0.00305464
0.00138668
0.00292901
0.00159101
0.00263284
0.000802084
0.00152805
0.0112691
0.000920811
0.00518216
0.000503666
0.00639417
0.0109326
0.00795344
0.00374418
0.00413517
0.00321538
0.0074244
0.000147872
0.00300602
0.00217354
0.00746551
0.000868001
0.00232738
0.002278
0.000629857
0.00420574
0.00126433
0.00699636
9.13318e-05
0.00581024
0.000567538
0.00269989
0.00493413
0.00368561
0.00349774
0.00456756
0.00700389
0.00342931
0.0037896
0.00378431
0.00207916
0.00591006
0.0071487
0.00118456
0.000505187
0.00667708
0.00279606
0.00418184
0.00547901
0.00300883
0.00534396
0.00290196
0.00488109
0.00508971
0.0124747
0.00729343
0.000995177
0.00203731
0.00197131
0.00189088
0.00382026
0.00884342
0.00560859
0.00198984
0.00185104
0.00179791
0.00761659
0.00713009
0.00300506
0.00133527
0.00755967
0.00229112
0.00660996
0.00777034
0.00381271
0.00137001
0.0059487
0.00457554
0.00500807
0.00138064
0.0040391
0.00296346
0.00285058
0.0071433
0.000703321
0.00596203
0.00668128
0.000207298
0.00144076
0.00157323
0.00382252
0.000175302
0.00109907
0.00372958
0.002457
0.00511588
0.00544221
0.00528802
0.00354337
0.00214407
0.0101715
0.00281308
0.00262981
0.0019452
0.00176276
0.00471402
0.00422719
0.00241725
0.00751999
0.000281484
0.00451089
0.00194712
0.00666696
0.00260428
0.00385808
0.00919993
0.00591242
0.00404175
0.00687003
0.0129287
0.00045762
0.00161133
0.000988983
0.000673154
0.00304348
0.000161791
0.00139225
0.00162437
0.000576857
0.0118556
0.00456405
0.00264822
0.00150398
0.000948882
0.002074
0.00248463
0.00215654
0.00385373
0.0054609
0.00225613
0.0061547
0.00418292
0.00195996
0.00390067
0.00414244
0.00359633
0.00304957
0.00105052
0.00180759
0.00580945
0.00388079
0.00435097
0.00997784
0.00290689
0.00308747
0.00138006
0.00113155
0.0043684
0.0055752
0.00137489
0.00224248
0.00376422
0.00686135
0.00309572
0.00226786
0.00243323
0.00104583
0.0023322
0.00500882
0.00231344
0.00359563
0.00411396
0.00436459
0.00829594
0.0050288
0.00865557
0.00494157
0.00141373
0.00423991
0.000373758
0.00464036
0.00473828
0.00659013
0.00593863
0.00249252
0.000349413
0.0049079
0.0131672
0.00574194
0.00416721
0.00057945
0.000938418
0.000750853
0.00620227
0.00500771
0.00360536
0.00252119
0.003139
0.0045697
0.00342575
0.00135877
0.000918238
0.00663762
0.00212411
0.00806405
0.00733029
0.00962032
0.00439144
0.00339155
0.00325835
0.000895225
0.00891794
0.000410405
0.000399897
0.00152816
0.00332143
0.00607445
0.00221727
0.00562499
0.000934559
0.00299649
0.00476738
0.00211419
0.00101866
0.00423192
0.00376511
0.00531749
0.00464906
0.00237242
0.00618608
0.00167212
0.0125855
0.00139105
0.000761921
0.00351808
0.000871973
0.00693056
0.00914036
0.0098091
0.0030348
0.00123685
0.00381082
0.00800324
0.00685314
0.00490519
0.00376967
0.00624643
0.00891003
0.00438912
0.00860191
0.00728922
0.0084895
0.0064871
0.00246003
0.00107343
0.00167013
0.00585141
0.00278621
0.00615215
0.00490197
0.00200423
0.00130801
0.00888324
0.00301381
0.0031082
0.00731701
0.000432282
0.00151331
0.00053917
0.00625478
0.00930022
0.000946242
0.00193431
0.00387416
0.00445673
0.000160364
0.00215692
0.00114259
0.00927348
0.00262266
0.00202415
0.00631208
0.00309981
0.00270866
0.00491436
0.00395496
0.000692509
0.00460548
0.00915127
0.00392459
0.00348632
0.00276852
0.00254606
0.000258758
0.00230405
0.00156654
0.00205285
0.00556059
0.00371926
0.00480353
0.00540322
0.000852811
0.00224458
0.00633382
0.0135648
0.0082357
0.0107011
0.00236643
0.00558965
0.00659791
0.00207695
0.000785149
0.00378075
0.00105825
0.00129756
0.00408749
0.00298921
0.0011134
0.00694708
0.00509579
0.00139593
0.00343374
0.00973526
0.00224701
0.00264277
0.00685003
0.000522034
0.00183924
0.00847391
0.00524601
0.00282417
0.00229812
0.00214575
0.00174274
0.0018557
0.00410837
0.000674521
0.000680424
0.0023962
0.00138246
0.00039408
0.00135434
0.000762904
0.0075694
0.000579729
0.000140469
0.000605316
0.00506199
0.000563737
0.00030772
0.00146625
0.00693807
0.00220439
0.0018814
0.00531164
0.000553356
0.00231185
0.00362435
0.00755922
0.00699631
0.00301942
0.00180359
0.00997737
0.0082301
0.00319988
1.22414e-05
0.00374938
0.0019133
0.00109809
0.00164112
0.00216041
0.00830075
0.000722485
0.00185781
0.000499331
0.00356497
0.00833547
0.0079351
0.00294367
0.0028963
0.00297047
0.000517135
0.0061871
0.00298561
4.03802e-05
0.00442861
0.00472655
0.000741113
0.000632836
0.00654534
0.00824641
0.00282037
0.00422563
0.00259531
0.00068435
0.00318054
0.00248189
0.00672414
0.000124359
0.00133837
0.00789585
0.00043311
0.00717488
0.0032361
0.00828819
0.00368781
0.00187711
0.0019841
0.00273037
0.00104941
0.0131367
0.00162966
0.00178229
0.00305235
0.0019603
0.00471634
0.00352714
0.00144145
0.00561785
0.00248323
0.000228407
0.00279729
0.00423429
0.000569572
0.00424729
0.00793337
7.3065e-05
0.00114306
0.00875153
0.00116523
0.0050012
0.00496526
0.00111469
0.00382872
0.0023766
0.00178708
0.00224635
0.0001496
0.00379187
0.00488669
0.000664935
0.00599817
0.00651574
0.00366898
0.000504378
0.00974657
0.00667873
0.00167874
0.00765375
0.00407153
0.00182687
0.0112617
0.00239544
0.0028568
0.00481452
0.00266503
0.00219727
0.00720076
0.00551929
0.00461586
0.00333146
0.00120531
0.013176
0.00250059
0.00260407
0.00269942
0.00316622
0.0015708
0.00322208
0.00514948
0.00315695
0.00981923
0.00593144
0.00309174
0.00573123
0.00787788
0.00728495
0.0145745
0.00464522
0.0072468
0.00198098
0.0111665
0.00408117
0.00923837
0.00578515
0.00403115
0.00242306
0.00294736
0.00495992
0.00691056
0.00616883
0.00185261
0.000873529
0.00398983
0.00367209
0.00150953
0.00379514
0.0111474
0.00802461
0.00179832
0.00382458
0.0127106
0.00459454
0.00545564
0.00810686
0.000879902
0.0040549
0.00959621
7.92137e-05
0.00015287
0.000700388
0.000757527
0.0104738
0.000779931
0.00278262
0.000150663
0.0110632
0.00390638
0.0138818
0.00455878
0.0193817
0.0011253
0.00610684
0.00179458
0.00264894
0.000813175
0.00867258
0.00766915
0.00376673
0.00573105
0.00207354
0.00147264
0.0044731
0.00179311
0.00805497
0.000383496
0.0058663
0.00203001
0.0146949
0.00109716
0.000189354
0.00244131
0.00565108
0.00562669
0.00655731
0.00309609
0.00409273
0.00149274
0.00518246
7.30716e-05
0.00455166
0.00285513
0.00783571
0.00274021
0.00154476
0.00506636
0.000763074
0.0045642
0.00316924
0.000585268
0.00660159
0.00507406
0.00359015
0.00678491
0.000297523
0.000921275
0.00273786
0.00545509
0.00443465
0.00873751
0.00215136
0.00698776
0.00750114
0.00230944
0.00260749
0.00203028
0.00561271
0.00411788
0.00489329
0.00636924
0.00519633
0.00334846
0.00158411
0.00512414
0.00817878
0.00467761
0.0038078
0.000732348
0.000747078
0.011048
0.00210672
0.00467235
0.00214295
0.00376982
0.0048332
0.00353851
0.000253064
0.00132114
0.00161534
0.00498086
0.00164051
0.00264621
0.00100829
0.00314837
0.00390347
0.00384506
0.00458401
0.00324691
0.0026445
0.00191189
0.00119277
0.00489414
0.000765702
0.000384937
0.00431141
0.00112907
0.00407659
0.00557553
0.00158313
0.00314044
0.00945746
0.00935626
0.00834271
0.00765955
0.00878436
0.00685581
0.000643168
0.00368526
0.00252061
0.00369559
0.00274291
0.0016401
0.00238309
0.00965539
0.000403135
0.0124114
0.00264855
0.000702577
0.0077588
0.00538741
0.00733677
0.0193299
0.0135548
0.00815239
0.0146613
0.00867625
0.0107741
0.0153129
0.00286838
0.00022968
0.00968748
0.00440518
0.00342431
0.00687656
0.00233189
0.000202926
0.00172306
0.000190365
0.00507226
0.000681959
0.00580917
0.0015357
0.000649411
0.00401808
0.000967657
0.00841857
0.0019164
0.00407009
0.00214747
0.00357789
0.000210378
0.00272408
0.00622461
0.0032248
0.00328672
0.00029905
0.0148024
0.00956952
0.00392867
0.000398048
0.00117235
0.00394153
0.0073224
0.0083495
0.00391673
3.5688e-06
0.00417942
0.00590863
0.00443229
0.00393508
0.00567862
0.00612653
0.00374004
0.000994709
0.00119568
0.0107499
0.0109299
0.00140406
0.00118812
0.00540255
0.00852708
0.00748323
0.00613803
0.00667856
0.00139332
0.000944613
0.00417438
0.00714058
0.00523696
0.00590686
0.00479457
0.0022015
0.00217917
0.00114649
0.00988885
0.0103458
0.0063777
0.00511284
0.00849225
0.0013126
0.00811336
0.0026436
0.004485
0.00599604
0.000473514
0.00173639
0.00522566
0.00435705
0.00286281
0.000884541
0.00473719
0.00352183
0.00204934
0.000413889
0.00639476
0.00286418
0.00369982
0.00292455
0.000529321
0.0092046
0.00161955
0.00649455
0.0015769
0.00411661
0.00436546
0.00289763
0.00714833
0.00410825
0.0013278
0.000384483
0.00265449
0.00279314
0.00731953
0.00559884
0.00261776
0.00609602
0.00178524
0.0028436
3.47446e-05
0.0068462
0.00660206
0.00601806
0.00908104
0.00174928
0.00475717
0.0076793
0.00479152
0.00597607
0.00602994
0.00156921
0.00854966
0.00974855
0.00905204
0.0023779
0.00893261
0.00184363
0.00326975
0.00612584
0.00313509
0.00688867
0.00617464
0.000250182
0.000332588
0.000318335
0.000846688
0.00299985
0.00457462
0.0084188
0.00139669
0.0114986
0.00165409
0.0133103
0.000435308
0.00572238
0.0010824
0.00105419
0.0160054
0.00767139
0.0118075
0.0142805
0.0008372
0.0126843
0.0139516
0.00426023
0.00522872
0.0104855
0.000329936
0.00833434
0.00836428
0.0105357
0.00330901
0.00344967
3.52406e-05
0.00200832
0.00239232
0.0103341
0.00510475
0.00678034
0.00938086
0.0018977
0.00049593
0.0136851
0.0034388
0.0114806
0.00552998
0.00475321
0.00305886
0.0145021
0.00032177
0.0076074
0.00577056
0.00362041
0.000406479
0.00474738
0.00379349
0.00691593
0.00503023
0.00588852
0.00628352
0.0100881
0.00849719
0.00531852
0.00847001
0.00615036
0.00535786
0.0106057
0.0124627
0.00293209
0.0118421
0.00775218
0.00229247
0.00250944
0.00148438
0.00656712
0.000375503
0.00684781
0.00109911
0.00164548
0.00742307
0.00116559
0.00586619
0.00631073
0.0141339
0.00425805
0.00819288
0.0169114
0.00159862
0.00350061
0.0103673
0.00362919
0.00956473
0.00186662
0.00206773
0.00258319
0.0022234
0.000370376
0.00725357
0.00467349
0.00183826
0.00581083
0.00579297
0.00105888
0.00180483
0.00429417
0.000221695
0.0124013
0.00202102
0.000722775
0.00120129
0.00446786
0.00106556
0.000368635
0.00464562
0.00151625
0.0127528
0.0042828
0.000515175
0.00209094
0.00328758
0.00496342
0.00778241
0.00374627
0.0102957
0.00251074
0.00822698
0.00594003
0.00425756
0.00187829
0.00391473
0.00204431
0.00397936
0.00352078
0.00498322
0.00170682
0.00413347
0.000147295
0.00578752
0.000751471
0.00688827
0.0081865
0.00274005
0.000300605
0.000504641
0.000601552
0.00296323
0.0010658
0.000385669
0.00583865
0.000660841
0.00712158
0.00251515
0.0080281
0.00242007
0.0114582
0.00437784
0.000914596
0.000673286
0.00432087
0.00526319
0.000381449
7.86838e-05
0.000150569
0.00170399
0.000957411
0.00367637
0.0023954
0.0040995
0.00612562
0.000903595
0.00421745
0.00399236
0.00142226
0.00434145
0.000249818
0.00303385
0.00122924
0.0109924
0.00806851
0.00675018
0.0078428
0.000735594
0.00840678
0.0129542
0.0051687
0.00775536
0.00545168
0.00492413
0.00609645
0.00470795
0.00176409
0.00569836
0.00311591
0.00406536
0.00388691
0.0039255
0.00921279
0.0020286
0.000402219
0.00150548
2.43782e-05
0.0114001
0.00177164
0.00218108
0.00729023
0.00203793
0.00487713
0.00257682
0.0106535
0.000726842
0.00706581
4.54472e-05
0.00262588
0.000741651
0.00101316
0.00227072
0.00516798
0.00253784
0.00848017
0.00414415
0.00317705
0.0161718
0.0156139
0.0118336
0.00869127
0.00554777
0.00184234
0.00183224
0.00127043
0.00644535
0.000814549
0.00384791
0.00214667
0.00364259
0.00942712
0.00510361
0.003327
0.00585746
0.00448954
0.00569887
0.00205625
0.0067436
0.000866831
0.00641578
0.00750163
0.00423485
0.00335258
0.00767661
0.00342168
0.00478208
0.00326188
0.003526
0.000941822
0.00234692
0.00063399
0.00490771
0.00828008
0.00381382
0.00892353
0.00289624
0.0106179
0.00128179
0.00239207
0.00378616
0.00995
0.0126617
0.00962961
0.00105408
0.00618016
0.0083425
0.00027987
0.00244877
0.00412817
0.00204394
0.000535214
0.00490675
0.0049514
0.000284222
0.00547921
0.000880977
0.00178878
0.00515337
0.00796623
0.00479282
0.00433628
0.0109758
0.00350013
0.0073908
0.00500743
0.00917056
0.00163449
0.00529984
0.00241487
0.00239805
0.00152453
0.00547688
0.00192243
0.00382325
0.00450286
0.0046238
0.000752319
0.00181061
0.00190823
0.0048526
0.0059032
0.00307106
0.00657444
0.00567352
0.00505605
0.00771584
0.00389471
0.00385395
0.00252205
0.000224268
0.00183033
0.00148305
0.00922349
0.00225699
0.00349248
0.001148
0.00020478
0.0010154
0.00880113
0.00760126
0.00321655
0.00013034
0.00375608
0.00473397
0.000550595
0.00170681
0.00338837
0.00375666
0.00607446
0.00358214
0.00256709
0.0126022
0.00785265
0.0125274
0.00918997
0.0152207
0.0128065
0.0075632
0.0150453
0.0105969
0.0104698
0.0113598
0.0102651
0.000995651
0.0132241
0.0106535
0.000798206
0.00548963
0.00354249
0.00394399
0.000165493
0.00484684
0.00318914
0.00342052
0.000554511
0.0128332
0.000201893
0.00846349
0.000722051
0.00118417
0.0090598
0.00213798
0.0134427
0.000204877
0.00820563
0.000486444
0.00160291
0.000320732
0.00226494
0.000369132
0.00464094
0.000456285
0.00714023
0.00439241
0.0119986
0.0020526
0.00226495
0.00798723
0.00135059
0.00601727
0.00407218
0.000259207
0.00250182
0.00275945
0.00648706
0.00216483
0.00311742
0.0030446
0.00347234
0.00696237
0.00316309
0.0042647
0.00125042
0.00526387
0.00238478
0.0118248
0.00453774
0.000272893
0.00781882
0.000721374
0.00250257
0.000556911
0.0112536
0.00477287
0.00664322
0.00659517
0.00230345
0.000470982
0.00250287
0.0035202
0.00219906
0.000504054
0.00408138
0.00366712
0.0054601
0.0010478
0.0103974
0.00675427
0.00519933
0.00407535
0.00973643
0.0121313
0.013998
0.00562091
0.00421443
0.00360113
0.00809406
0.00236492
0.00369322
0.0022261
0.00151755
0.0120063
0.00284476
0.00801689
0.00204939
0.00148261
0.00408276
0.00167382
0.0026834
0.00506835
0.00024201
0.00310871
0.00259912
0.00664558
0.00413347
0.00449266
0.00690727
0.00708274
0.00772806
0.00483068
0.00253698
0.00101483
0.00296064
0.0022098
0.000904938
0.000252869
0.00389138
0.00635639
0.00162009
0.0100585
0.0051635
0.00889279
0.000378547
0.000743382
0.0104622
0.000402263
0.00187288
0.0075931
0.000360252
0.000875727
0.00159911
0.00374572
0.00692472
0.0017317
0.00166558
0.00257651
0.00154931
0.00242196
0.00601676
0.00162718
0.00911676
0.000160268
0.000402019
0.00567228
0.00610564
0.000172482
0.00102425
0.00509119
0.00494167
0.000987736
0.00472506
0.00242278
0.00905188
0.00370264
0.00413142
0.00758779
0.00196694
0.0125095
0.0101286
0.0133907
0.00967036
0.0090055
0.000788006
0.00625458
0.0115617
0.0084343
0.00215127
0.00256271
0.00109668
0.00408382
0.00875889
0.00476833
0.00548087
0.00538909
0.00218063
0.000867256
0.0102987
0.00646522
0.00639872
0.00721136
0.0123308
0.00886965
0.00953915
0.00687342
0.00464295
0.0136236
0.0065335
0.000258277
0.00347441
0.00238038
0.00604104
0.00323323
0.00704315
0.00242103
0.000155571
0.00569853
0.00629201
0.00298707
0.0054964
0.00946268
0.00432249
0.0121368
0.00276697
0.00480629
0.00292077
0.00065098
0.00626859
0.00248804
0.00102273
0.000694752
0.00418459
0.00337326
0.000925957
0.00414568
0.00548474
0.00723917
0.00496824
0.0047893
0.0140153
0.00260796
0.00532001
0.00114877
0.00168667
0.00645023
0.00960455
0.00127935
0.00898231
0.00555542
0.00188617
0.0021883
0.00349515
0.00243861
0.0101754
0.00823147
0.00286123
0.00709867
0.00676677
0.00808577
0.00304338
0.00251005
0.00223943
0.00448512
0.000808769
0.000636291
0.00328239
0.00327447
0.000779168
0.00648128
0.00397949
0.0018365
0.00257781
0.00606554
0.00731103
0.00273321
0.000569888
0.00281117
0.000628965
0.00433228
0.00284977
0.00405522
0.00409915
0.00632689
0.00725454
0.0066075
0.00482584
0.00373202
0.00711021
0.00135824
0.00112821
0.0108952
0.00146767
0.00796559
0.00197364
0.00861941
0.00198419
0.00108259
0.000789814
0.000419047
0.00378242
0.00215784
0.00961227
0.00237861
0.00149301
0.00189918
0.00931382
8.65974e-05
0.00380225
0.00560395
0.000229768
0.00171058
0.00893795
0.0101409
0.000487465
0.00398899
0.000378804
0.00212057
0.00175463
0.00507641
0.00355972
0.00306989
0.000518891
0.000565484
0.00057881
0.00183317
0.00670042
0.00505502
0.000950986
0.00096219
0.00225013
0.0102179
0.00222614
0.00331065
0.00279267
0.00517303
0.00429797
0.00358775
0.00281692
0.004023
0.00876199
0.00807466
0.00748031
0.0117183
0.00769844
0.0110089
0.00858847
0.00695561
0.00817506
0.00596295
0.0011809
0.00257008
0.0054055
0.00384634
0.00147503
0.00893086
0.000527871
0.0101127
0.00128557
0.00727243
0.00162029
0.00101598
0.00370165
0.000269887
0.00209723
0.000864402
0.00422487
0.000948008
0.00407367
8.84141e-06
0.00254948
0.00139022
0.00520611
0.00754795
0.002165
0.000967363
0.0124329
0.00385625
0.00122692
0.0106609
0.00792363
0.0112276
0.00533072
0.00266292
0.00575431
0.00748211
0.00778457
0.002863
0.00295742
0.00608728
0.00254803
0.000920436
0.00311113
0.000674037
0.00184452
0.000213888
0.00405224
0.00139708
0.00336627
0.00740053
0.00850295
0.000121739
0.00141631
0.0083444
0.00271185
0.00798187
0.00745176
0.00343189
0.00124229
0.00203376
0.00365242
0.000884011
0.0044503
0.00108353
0.00250927
0.00151487
0.00586717
0.00193344
0.00257457
0.00340764
0.00334715
0.00472182
0.00144829
0.00493892
0.00686036
0.0102338
0.00439383
0.00780545
0.0122776
0.00123945
0.000226882
0.00574838
0.00663008
0.00117191
0.00440529
0.00157937
0.00566692
0.0151443
0.00330256
0.00448159
0.00213308
0.000983814
0.00614352
0.00636786
0.00132366
0.00232495
0.00546986
0.00544157
0.00140274
0.00137036
0.00553035
5.41691e-05
0.00465469
0.00539265
0.000619193
0.0091081
0.00136073
0.0105717
0.00106013
0.000767093
0.000902334
0.00305199
0.00576694
0.000601843
0.00178905
0.00346437
0.00315175
0.00592365
0.00956436
0.00245082
0.000908236
0.00119879
0.00427246
0.00741046
0.00666352
0.000602647
0.00310302
0.00806843
0.00208777
0.00408457
0.0100388
0.000689823
0.00797557
0.00916588
0.0028356
0.010827
0.00479222
0.00136767
0.0034088
0.00126219
0.00015883
0.000980262
0.008643
0.00363271
0.00475328
0.00201791
0.00706353
0.00471856
0.00965228
0.00260513
0.00441846
0.000525546
0.0108604
0.00427433
0.00384177
0.00467463
0.00302749
0.00684334
0.0165493
0.00231111
0.00703916
0.00445348
0.00771829
0.000636235
0.00035922
0.00565896
0.00402126
0.00479305
0.00370531
0.00328969
0.000990607
0.00268701
0.000320949
0.0102358
0.00633856
0.00566839
0.00793422
0.0031762
0.00215923
0.00172535
0.00224285
0.0036394
0.00543839
0.0035727
0.00178821
0.00743154
0.00176849
0.00328097
0.00720491
0.00153089
0.000709628
0.000241912
0.0062397
0.00875793
0.0016328
0.0125419
0.00697499
0.00180047
0.0048451
0.0031673
0.000285656
0.00494926
0.00619236
0.000806119
0.000435583
0.00188039
0.00274134
0.00111731
0.00132833
0.000194771
0.000860768
0.00991567
0.000544503
0.00240646
0.00253754
0.00533298
0.00143404
0.00339254
0.00841368
0.00108499
0.00322233
0.00326999
0.0056888
0.00190734
0.00247924
0.00749121
0.00617581
0.0087931
0.000470423
0.00168782
0.0024652
0.00307411
0.000768278
0.00852424
0.0163754
0.00250722
0.00224042
0.00310047
5.27194e-05
0.00451239
0.00448299
0.00744746
0.00123605
0.00559176
0.00909702
0.00315923
0.000539443
0.00488795
0.00626759
0.00177869
0.00142296
0.000623861
0.00314032
0.00149348
0.00358049
0.0079784
0.00286398
0.00392368
0.00372856
0.00913649
0.00116066
0.00218965
0.00490546
0.000422607
0.00157273
0.00315386
0.00238091
0.00246753
0.00272987
0.00447604
0.000719174
0.00653794
0.00613021
0.000281055
0.0026278
0.00957645
0.00407254
0.00227071
0.00109062
0.000484998
0.000687084
0.0108265
9.21092e-06
0.0077017
0.0054325
0.00159656
0.0053828
0.000565955
6.8199e-05
0.000396852
0.00455177
0.00639453
0.00597751
0.00992034
0.00348647
0.00254257
0.000661453
0.00221469
0.00147752
0.00179895
0.00450467
3.04479e-06
0.000963338
0.00665149
0.0026747
0.000784336
0.00272698
0.00542931
0.0118537
0.00274099
0.00875399
0.00190143
0.00364759
0.00288316
0.00407405
0.00603207
0.00199065
0.000252126
0.00169836
0.00801791
0.00909305
0.00890926
0.00391706
0.00765076
0.00520211
0.00823238
0.00074906
0.00373219
0.000446249
0.000326172
0.00177723
0.000111839
0.00476057
0.00245497
0.00589275
0.00192198
0.00157693
0.000180183
0.00343107
0.000390782
0.000895829
0.00390024
0.00272894
0.00451785
0.00527569
0.00355129
0.000930723
0.00693017
0.00149829
0.00192781
0.0113466
0.00482309
0.00558585
2.07314e-05
0.00295395
0.00179448
0.00327918
0.000920255
0.00857493
0.00413708
0.00142577
0.00473835
0.00434422
0.00473506
0.0100175
0.0062598
0.000695777
0.000295927
0.00554787
0.00313923
0.00498222
0.00323444
0.000152534
0.00393184
0.000787153
0.00582196
0.00607407
0.00258484
0.00607548
0.0021568
0.00113529
0.00301917
0.00100982
0.00453673
0.00152962
0.000209249
0.00620714
0.00220728
0.0148693
0.00469063
0.000626513
0.00590968
0.00013491
0.00145191
0.00274463
0.006279
0.00331689
0.00539828
0.00590888
0.0116918
0.00251718
0.00353379
0.0042974
0.00374565
0.000959037
0.000729905
0.00680583
0.00187919
0.000665734
0.00844744
0.00206075
0.010398
0.00675156
0.00659722
0.00155382
0.00960053
0.00721175
0.010209
0.00522054
0.0043229
0.00257271
0.00531749
0.00652744
0.00141035
0.00191992
0.00947242
0.00798109
0.00562166
0.00409492
0.00356471
0.00353945
0.00377965
0.000445487
0.00256999
0.000654844
0.00398687
0.000501512
0.000145165
0.00703165
0.00271349
0.00561157
0.00468405
0.0120764
0.00219684
0.00376512
0.00607336
0.000512077
0.000559707
0.00192831
0.00391784
0.00911688
0.0109671
0.0146679
0.00635484
0.0056078
0.0111622
0.00221411
0.00478297
0.00178641
0.00495105
0.000779728
0.0150617
0.0107912
0.00752733
0.00728786
0.0047961
0.00537582
0.00845592
0.000460071
0.00682023
0.0097749
0.00360875
0.00226392
0.000383354
0.000378613
0.00331565
0.00708655
0.00131484
0.00896081
0.0113262
0.00111612
0.00949659
0.009039
0.0093612
0.00489381
0.00347863
0.000148369
0.00352507
0.00129322
0.00949774
0.00912422
0.000188535
0.000646499
0.00127322
0.000252496
0.000795655
0.0019159
0.00192799
0.00536193
0.0104586
0.00810089
0.00573702
0.00515308
0.00676638
0.000627295
0.00880182
0.0101042
0.00585525
0.00525132
0.00209677
0.00204707
0.00824539
0.00682194
0.00378289
0.00159931
0.000728654
0.00216623
0.000613596
0.0102099
0.00585228
0.011761
0.0156493
0.00204183
0.00653785
0.00071156
0.000937014
0.00312727
0.0102773
0.00374269
0.000139435
0.00287077
0.0042309
0.012953
0.00845127
5.01183e-05
0.00161662
0.00172583
0.0144578
0.00428217
0.00303778
0.00484035
0.00932697
0.00688357
0.000699502
0.00114198
0.00525287
0.000465917
0.00421736
0.00413324
0.00209819
0.00413497
0.0095149
0.000189914
0.00273155
0.00228621
0.00633638
0.00646015
0.00654628
0.000585078
0.00481268
0.00601025
0.00555879
0.00409785
0.0059231
0.00254063
0.00715126
0.0063642
0.00652596
0.00875525
0.00202046
0.0111635
0.0120678
0.0024284
0.00151695
0.0049849
0.00376232
0.00152181
0.00951921
0.00262015
0.00542768
0.00287785
0.000437229
0.00626895
0.00702277
0.00264598
0.00387187
0.00511512
0.00594644
0.0055153
0.00170422
0.00160536
0.00902473
0.00445058
2.79627e-05
8.26133e-05
0.000233114
0.0084723
0.000396782
0.00242374
0.00426246
0.00604488
0.00310387
0.00866815
0.000541719
0.00177168
0.00452271
0.00666122
0.00744378
0.0065349
0.00813584
0.00163142
0.00333002
0.00199461
0.00230138
0.00203963
0.010462
0.00362024
9.28574e-06
0.00333149
0.00204781
0.00350822
0.0118553
0.0111452
0.00626618
0.00894473
0.00657241
0.00802606
0.00104782
0.00203457
0.011148
0.00189793
0.0119191
0.00366561
0.00126266
0.00472412
0.000145762
0.0106089
0.0020016
0.016071
0.00915088
0.00877289
0.0169245
0.00742495
0.000420622
0.000276964
0.00109732
0.000131626
0.00169007
0.001273
0.00169692
0.000591395
0.000579438
0.00116428
0.000388562
0.0107543
0.00334281
0.00593218
0.000309708
0.00884292
0.00115966
0.00764207
0.00771197
0.00582838
0.00570876
0.00133029
0.00605917
0.00589317
0.00112781
0.00684853
0.00786207
0.00458945
0.000700751
0.00314258
0.00595831
0.00212233
0.00206876
0.00213023
0.0010391
0.00466299
0.00857706
0.0164837
0.00864371
0.00568433
0.00351942
0.00718088
0.00435197
0.00623801
0.00175574
0.0007764
0.00322105
0.00147464
0.00290499
0.00414415
0.00506252
0.00396539
7.7381e-06
0.00238958
0.00699646
0.00766665
0.00988442
0.015119
0.00414981
0.0114775
0.00625773
0.00905421
0.0109582
0.00298638
0.00461227
0.00657003
0.00425946
0.00299866
0.00657909
0.00345975
0.00447003
0.00748627