/*--------------------------------*- C++ -*----------------------------------*\
| =========                 |                                                 |
| \\      /  F ield         | OpenFOAM: The Open Source CFD Toolbox           |
|  \\    /   O peration     | Version:  2212                                  |
|   \\  /    A nd           | Website:  www.openfoam.com                      |
|    \\/     M anipulation  |                                                 |
\*---------------------------------------------------------------------------*/
FoamFile
{
    version     2.0;
    format      ascii;
    arch        "LSB;label=32;scalar=64";
    class       volScalarField;
    location    "0";
    object      stateMean;
}
// * * * * * * * * * * * * * * * * * * * * * * * * * * * * * * * * * * * * * //

dimensions      [0 0 0 1 0 0 0];

internalField   nonuniform List<scalar> 
3200
(
325.288
326.597
328.221
329.259
331.379
329.333
327.945
329.346
329.082
331.67
329.891
329.981
329.455
327.367
328.498
329.756
328.081
329.576
330.397
324.954
323.918
322.827
322.488
324.513
325.895
326.242
326.036
324.127
327.959
323.227
325.556
324.65
323.11
327.84
321.612
326.622
325.068
326.339
321.251
321.622
316.786
319.71
321.599
321.266
322.141
321.723
321.539
320.098
321.933
319.931
322.08
320.805
320.974
321.374
320.98
321.306
320.724
322.836
320.001
318.843
314.991
315.955
314.019
318.696
317.29
313.806
317.132
315.642
317.95
316.745
319.745
317.804
320.136
319.604
314.913
317.049
314.79
316.745
317.111
314.411
313.741
315.796
314.787
311.586
314.541
312.902
314.473
316.257
315.554
310.243
312.535
314.274
310.779
314.702
315.373
310.073
313.87
311.738
312.312
313.44
310.268
308.191
309.62
310.823
311.359
310.559
309.969
309.19
313.011
309.886
309.208
311.666
309.976
309.561
308.376
306.745
308.183
309.889
306.61
308.084
305.948
306.861
306.045
306.647
304.868
307.588
305.175
306.539
304.145
306.729
304.336
306.651
306.831
304.954
305.753
306.12
306.415
305.892
303.332
304.424
300.961
302.648
302.227
301.313
302.915
302.974
302.539
300.638
302.115
303.577
300.116
301.368
300.6
301.612
304.286
302.167
299.098
301.003
301.957
300.585
327.454
327.144
329.918
331.102
330.264
330.037
330.326
332.012
331.222
332.085
329.445
333.241
329.836
332.357
329.438
327.486
329.348
329.057
329.258
326.491
323.156
326.538
325.409
328.798
326.212
328.136
324.814
328.453
326.553
328.696
328.695
326.718
327.69
324.95
327.23
326.73
326.374
326.834
326.598
321.863
320.126
322.739
319.566
318.31
320.427
321.395
324.532
320.693
323.198
322.228
320.914
323.287
322.759
321.97
322.828
320.482
320.337
320.618
317.036
320.8
315.396
318.456
317.188
318.033
316.846
318.257
318.631
316.394
318.006
319.613
317.755
317.991
317.235
318.237
317.184
316.783
315.475
315.762
314.438
313.76
313.319
314.007
312.894
313.315
314.48
311.212
311.807
313.13
314.958
311.899
316.993
315.782
315.183
311.398
314.362
314.035
312.891
311.336
312.817
311.656
310.236
310.81
309.099
309.521
311.904
311.765
306.883
309.212
310.861
309.291
309.644
309.658
310.7
311.264
310.649
308.606
309.825
309.98
307.257
308.904
308.26
305.537
308.143
304.731
306.832
304.203
305.465
307.44
305.74
305.713
307.458
306.069
306.66
302.949
306.134
304.334
307.89
307.222
305.075
307.184
303.249
301.226
301.44
302.506
302.644
301.725
301.151
304.705
298.339
302.05
300.781
299.745
302.992
303.88
301.218
303.116
301.157
303.929
299.966
301.71
328.316
331.161
330.166
331.474
330.244
331.443
330.71
332.818
330.628
330.166
333.215
331.394
333.972
330.041
331.876
331.742
330.945
332.571
327.548
326.171
325.139
325.944
326.413
324.638
327.487
328.537
328.114
325.474
329.849
328.418
327.065
326.78
326.062
328.988
326.442
325.828
324.655
325.273
324.716
323.193
321.218
319.924
323.499
323.384
319.085
320.161
323.157
323.633
322.501
322.858
325.054
324.183
324.004
325.015
326.759
320.039
321.213
320.715
320.753
320.109
318.618
316.402
318.4
316.894
320.261
316.57
322.594
318.131
318.387
317.6
317.986
318.497
320.128
318.605
318.82
316.394
317.019
316.36
319.89
316.729
312.355
314.079
312.161
311.446
315.244
312.85
316.463
313.599
314.032
315.001
315.438
314.89
315.972
313.686
313.949
315.444
313.452
312.591
312.065
311.869
308.867
312.077
307.987
310.352
311.204
311.046
309.689
312.089
310.067
309.532
311.974
309.681
311.829
310.069
310.456
311.695
311.813
307.261
307.611
309.033
306.371
303.287
305.382
307.153
308.576
306.938
307.229
307.592
307.579
307.039
307.82
307.014
303.192
307.232
305.152
307.9
306.482
308.043
308.871
305.553
303.415
301.07
301.964
302.521
299.703
300.762
301.921
301.203
302.587
300.299
301.327
302.61
300.595
302.389
301.987
300.4
299.416
300.772
301.023
303.019
331.009
329.881
330.106
331.508
332.713
329.751
333.93
334.329
333.074
332.679
334.187
332.659
333.044
332.491
328.883
331.922
330.096
331.581
328.927
327.136
323.95
328.018
325.76
328.514
325.384
328.215
329.473
329.469
326.493
328.766
329.818
329.698
328.547
329.868
327.751
330.112
327.431
325.212
326.979
325.665
320.797
321.403
321.733
321.68
321.192
324.861
322.793
325.475
323.738
322.582
322.18
324.029
324.084
326.185
322.846
322.104
324.927
321.891
320.868
321.452
319.821
316.811
314.677
316.566
318.82
320.03
318.969
319.18
321.141
317.16
318.195
320.556
320.377
319.024
316.946
321.413
317.934
318.227
316.025
318.997
312.102
316.747
313.277
315.093
316.727
313.6
313.633
315.791
314.186
314.58
314.616
317.713
315.134
317.091
312.936
314.919
315.115
313.981
313.104
314.234
309.774
309.047
309.564
308.871
308.906
309.086
311.953
310.288
314.193
310.193
310.25
311.634
310.407
309.387
312.043
311.347
308.124
310.239
308.805
310.719
308.11
306.919
307.376
303.457
304.546
307.676
308.617
302.608
306.477
306.147
306.944
306.823
307.505
306.461
306.864
305.859
306.098
309.825
304.725
305.258
302.487
301.764
301.448
302.853
301.478
300.993
303.831
301.52
300.357
300.961
301.633
301.038
300.95
301.094
303.078
302.447
302.648
300.32
303.223
300.719
334.507
330.52
332.867
331.772
332.25
334.466
335.224
333.202
334.625
335.246
336.281
334.91
334.418
332.554
332.663
333.402
333.894
332.61
332.676
329.839
325.507
324.459
325.835
330.654
329.782
328.958
330.194
328.933
327.713
330.9
331.509
327.286
329.876
328.915
326.882
332.481
329.699
328.847
327.363
327.241
322.471
320.908
321.554
324.621
324.561
323.01
322.803
323.39
325.099
324.443
322.585
325.348
321.885
326.662
320.91
325.167
324.552
322.119
322.622
319.835
318.663
318.565
319.391
318.076
321.313
320.312
321.613
320.29
319.16
318.66
319.509
319.793
321.345
321.018
317.904
320.858
319.893
320.877
319.225
314.523
313.947
314.267
313.564
315.126
312.853
318.096
318.473
316.474
316.005
316.871
313.142
317.778
317.064
314.19
313.246
317.843
313.469
311.964
312.214
311.715
308.248
311.111
310.132
311.113
308.908
311.719
312.884
312.594
310.516
310.77
308.413
310.202
312.036
308.696
310.719
310.256
310.761
312.407
313.234
310.555
305.564
307.394
304.914
306.405
305.774
306.862
309.425
305.837
307.304
308.642
307.657
307.514
308.148
307.795
306.724
307.846
309.16
305.077
305.14
307.004
301.294
302.158
302.799
301.656
301.536
303.861
303.329
303.677
300.606
301.989
302.925
300.325
298.125
299.716
305.415
301.441
300.44
304.096
302.707
301.826
333.019
331.686
332.812
334.111
334.125
333.124
336.148
335.812
333.844
333.269
337.673
333.56
333.226
331.542
333.321
333.742
335.571
334.125
331.099
332.527
328.122
328.22
327.337
329.615
328.815
328.686
328.41
328.986
329.486
330.155
329.456
332.111
329.632
329.153
328.711
330.256
328.451
328.047
327.169
329.691
322.409
322.704
325.281
324.012
323.36
325.553
327.076
322.553
323.993
324.465
328.294
327.649
323.787
324.626
325.593
324.729
324.189
324.093
322.614
320.439
319.095
319.611
319.063
320.583
322.335
322.427
319.146
321.183
321.328
320.605
318.456
321.333
320.242
318.67
321.401
319.907
319.242
321.311
321.649
317.966
313.312
313.943
315.134
316.092
316.048
317.557
315.63
315.298
318.308
315.727
318.13
314.792
318.338
316.755
314.844
315.892
315.95
315.248
310.625
315.155
310.998
309.58
310.032
309.298
309.792
310.563
309.374
310.441
311.21
310.445
312.634
311.104
312.536
313.59
310.988
310.534
313.484
311.003
308.975
308.904
305.926
305.143
305.656
307.006
307.222
306.56
305.51
305.229
306.564
304.949
308.788
305.642
306.573
303.684
304.558
306.018
308.804
305.137
306.876
302.818
301.375
302.979
300.684
302.968
302.853
300.037
300.567
303.649
303.274
302.639
306.258
303.023
301.467
301.419
303.17
302.664
301.189
303.695
301.162
299.133
334.416
331.675
334.941
336.01
336.171
338.954
335.951
337.085
334.185
338.687
336.314
337.941
336.596
335.746
334.895
334.724
335.038
335.333
334.756
331.828
328.291
329.534
329.712
329.307
330.369
333.09
332.335
330.508
331.34
334.361
331.681
331.879
332.59
329.979
330.754
332.278
328.837
328.556
328.454
327.756
327.002
324.049
324.936
324.34
328.143
326.074
329.546
323.742
331.669
325.069
327.422
325.947
324.363
325.298
327.622
327.041
325.513
325.891
323.125
323.136
317.838
318.839
317.032
319.94
321.907
320.887
315.715
320.932
320.754
321.535
322.565
322.497
322.682
321.416
321.548
319.552
321.474
319.583
317.958
318.354
312.484
315.928
315.703
316.977
315.786
317.147
316.852
316.158
318.146
317.71
317.241
313.916
315.879
316.142
316.57
317.266
316.778
317.97
314.387
317.153
308.336
310.028
311.664
310.339
309.343
312.484
312.83
313.377
313.074
312.532
311.982
313.052
313.941
312.763
312.388
311.317
311.202
307.419
310.091
312.118
307.056
307.602
305.03
307.666
306.575
307.126
307.28
308.364
306.37
306.081
306.584
307.839
305.638
305.604
308.127
305.657
307.392
307.097
306.813
307.899
301.913
302.044
300.878
302.546
303.461
303.937
302.752
303.239
305.162
305.137
299.787
299.987
299.635
304.345
302.058
303.343
301.443
301.064
302.989
302.64
332.447
336.708
333.933
338.276
335.35
334.551
337.677
337.125
337.954
342.071
340.133
338.228
340.235
337.984
338.393
339.586
335.087
333.721
336.719
331.773
327.563
331.16
329.934
329.52
329.175
330.084
331.949
330.258
332.555
331.22
330.927
331.963
330.803
333.054
330.653
331.085
330.16
330.344
328.829
327.794
326.208
325.41
325.656
324.735
329.889
328.425
326.805
325.573
325.448
327.181
328.282
328.551
326.979
325.527
326.672
326.998
326.272
325.866
326.206
322.204
320.931
320.193
319.676
323.7
323.96
320.2
321.206
322.703
323.811
318.725
319.157
323.217
321.416
320.522
321.989
322.745
321.934
321.95
321.409
320.439
316.004
315.062
318.687
318.986
317.891
317.642
318.847
316.689
318.922
315.561
317.816
318.252
316.424
315.613
317.677
317.252
316.624
315.845
313.93
314.207
311.563
311.13
309.114
310.322
312.477
312.343
311.693
308.741
311.161
313.72
311.204
312.949
312.969
310.625
313.658
312.604
311.626
311.223
311.827
310.058
308.799
308.317
307.464
308.597
307.342
307.731
306.927
304.863
304.972
308.865
309.805
306.462
305.505
309.273
308.328
308.627
304.877
307.142
309.221
303.567
299.461
302.93
299.531
301.697
303.264
300.446
301.369
300.25
304.212
302.275
302.25
302.441
302.589
303.224
300.915
299.731
302.676
305.706
302.711
298.174
334.301
336.303
335.043
334.638
340.67
338.176
339.836
340.893
335.97
340.602
341.028
337.685
337.85
339.392
335.712
338.098
337.793
338.207
335.495
335.309
329.465
330.337
330.715
333.607
332.152
332.966
334.062
331.777
331.451
335.894
332.498
335.09
332.98
332.53
331.736
335.257
330.301
332.436
331.577
330.67
324.721
326.56
326.463
327.707
327.323
327.822
328.149
329.554
329.153
328.177
329.206
328.387
328.011
329.559
329.965
326.64
329.31
327.75
325.762
324.038
319.8
322.511
320.46
322.963
321.306
321.659
323.677
321.051
323.407
323.6
326.116
322.89
324.059
326.726
321.644
322.077
324.091
321.743
323.472
319.677
315.082
316.652
316.673
315.998
318.554
317.878
317.106
318.468
318.537
316.406
317.313
318.062
316.558
320.449
315.76
316.031
315.735
314.558
316.173
315.851
309.778
310.823
315.362
312.828
311.759
311.045
310.762
313.409
314.341
310.772
315.153
311.131
314.427
309.935
313.024
312.183
310.275
312.028
312.534
310.128
305.205
306.252
305.566
306.941
308.735
306.787
309.186
309.63
306.305
307.256
307.009
307.332
306.206
307.398
307.136
308.75
307.099
309.019
307.548
309.196
302.987
298.807
300.966
302.034
302.535
303.657
300.778
302.499
302.37
302.354
302.915
302.104
303.496
301.645
303.59
300.479
302.583
301.014
303.477
301.826
333.736
335.494
336.701
336.385
339.956
339.25
339.055
339.628
337.379
340.041
341.574
338.874
339.598
338.618
338.192
338.31
337.554
336.275
337.321
336.235
329.026
331.839
329.49
334.09
331.962
331.661
332.241
331.91
335.828
332.697
332.833
334.464
332.594
333.36
332.382
334.819
330.799
333.126
330.539
331.237
325.362
326.087
326.696
324.481
327.207
329.349
328.115
327.949
332.304
332.178
330.941
329.858
328.724
326.159
327.178
325.964
324.065
325.69
327.01
324.904
319.717
317.984
322.811
322.414
323.401
323.127
323.664
322.614
324.211
322.363
324.15
324.455
323.315
322.909
324.152
320.418
322.882
320.124
322.142
321.188
316.95
316.102
317.982
319.184
317.906
319.653
317.859
320.402
316.697
317.898
315.938
320.258
321.05
319.993
316.492
318.655
319.204
316.518
315.528
314.903
312.198
311.461
313.248
313.358
311.821
313.712
311.809
312.709
313.809
314.712
313.721
313.554
308.725
313.176
314.308
313.472
314.674
312.227
309.976
310.809
307.672
306.508
308.712
306.497
308.319
308.583
308.67
307.521
306.763
307.92
308.825
309.133
306.346
309.269
308.943
308.698
309.456
305.834
305.793
307.71
302.256
302.89
302.803
305.163
301.711
303.468
302.082
302.504
302.759
305.119
304.756
303.425
302.481
301.293
300.98
302.228
302.89
301.331
303.473
304.16
335.142
337.416
341.05
339.721
341.566
340.694
342.959
342.33
340.69
343.289
341.785
341.673
341.841
341.285
337.928
341.801
340.665
336.537
338.4
335.155
332.671
331.483
333.365
333.048
333.355
332.622
336.901
332.859
335.724
333.205
332.571
335.922
332.08
337.103
332.506
334.945
331.828
332.289
331.432
332.115
326.561
328.101
326.621
329.301
328.598
331.274
326.838
326.904
330.36
328.235
329.764
329.077
327.731
326.691
328.249
329.283
326.258
327.789
327.579
325.307
319.33
322.702
323.208
322.398
323.851
323.075
326.254
324.016
322.542
325.194
322.438
323.437
322.732
326.07
323.844
324.295
324.119
322.576
321.836
320.764
317.852
317.523
317.103
318.362
318.355
319.042
317.747
320.801
319.707
315.942
318.887
320.654
321.352
321.857
319.093
318.529
318.21
319.508
317.575
315.567
311.244
312.474
315.831
311.285
314.765
312.986
312.884
313.758
312.003
313.388
314.133
312.45
313.453
311.609
314.422
313.553
310.771
314.24
309.791
314.349
308.646
307.978
306.937
308.213
306.677
307.685
307.374
306.291
309.47
308.026
310.621
305.927
310.222
307.336
307.636
310.572
307.179
306.674
309.532
307.051
302.664
302.896
303.561
304.54
301.94
302.985
301.717
302.04
301.784
304.342
303.014
305.275
302.557
302.618
304.197
304.311
302.394
302.738
303.952
300.905
337.959
336.221
338.871
341.361
339.797
340.173
341.549
339.811
343.506
342.761
343.868
342.543
342.198
339.244
340.892
342.457
341.152
337.325
338.683
337.996
331.108
329.714
334.417
334.869
335.051
334.182
333.921
337.213
336.038
336.069
336.34
337.996
336.736
336.815
335.747
334.802
337.581
335.005
332.541
331.311
326.589
325.524
328.732
330.163
328.827
328.253
330.222
330.54
329.541
330.411
331.714
329.98
332.46
329.26
329.779
328.991
328.067
329.727
328.317
327.703
322.1
323.78
323.659
323.018
324.203
324.775
320.787
324.832
324.845
327.866
324.177
325.017
323.597
323.671
325.086
325.966
323.132
325.468
324.222
321.716
318.017
316.296
316.74
320.861
320.358
318.759
320.202
320.175
320.65
319.075
318.905
318.79
319.449
317.688
317.648
316.7
316.589
317.761
315.348
316.06
312.929
311.609
310.596
314.858
313.51
312.553
313.678
313.052
314.25
313.807
314.184
314.177
314.834
315.068
314.797
314.164
313.74
310.269
311.99
312.003
310.761
307.898
309.942
306.935
310.242
308.247
308.011
307.469
307.864
308.912
307.084
310.693
306.98
308.137
307.053
310.456
307.569
306.324
305.724
307.483
303
299.791
299.442
302.674
301.336
302.673
303.214
302.052
304.127
303.672
303.524
302.434
302.412
302.747
303.113
300.516
304.056
302.222
302.204
301.802
335.564
338.45
338.298
340.598
341.63
341.543
341.487
341.375
341.892
343.561
343.327
343.069
344.405
342.886
343.825
342.791
342.011
336.647
341.228
339.428
334.531
335.627
332.726
334.7
337.386
334.758
338.126
334.441
337.399
334.468
335.351
336.203
334.781
335.443
334.292
332.987
334.524
335.372
333.826
332.822
327.927
330.219
331.148
329.545
329.314
333.241
328.015
328.991
332.985
332.124
333.213
331.229
330.272
331.18
331.612
331.557
327.892
329.639
330.509
329.221
322.854
324.257
323.162
324.113
323.719
325.087
324.338
325.067
326.438
326.829
324.034
324.499
326.679
324.764
326.359
326.062
324.626
322.978
322.594
324.331
317.683
319.456
318.486
319.046
317.869
320.316
319.151
317.785
319.74
319.747
320.185
318.192
317.031
320.72
321.707
319.75
320.731
322.047
318.435
317.892
311.014
310.793
313.305
314.393
313.582
314.933
317.962
314.304
311.901
313.991
313.015
311.38
315.264
312.804
313.886
314.801
314.717
313.377
313.296
314.542
307.669
306.286
306.101
307.616
310.655
307.474
311.185
307.634
307.745
308.27
307.052
309.757
308.145
307.379
306.826
306.881
309.63
304.817
306.964
307.965
302.212
301.293
304.842
300.599
302.812
303.583
305.099
303.299
301.438
299.638
302.468
305.088
305.441
301.799
299.367
304.08
302.201
301.568
302.204
302.527
340.887
337.772
339.679
339.504
342.017
343.929
343.295
345.117
342.804
343.474
341.783
345.626
343.279
342.996
339.921
342.361
343.459
346.559
339.93
338.156
333.495
332.538
335.085
335.599
337.553
337.168
337.572
334.834
337.267
335.871
337.107
336.269
339.519
338.092
337.722
338.317
336.544
336.022
334.547
334.236
328.291
327.812
330.928
330.492
327.598
329.606
331.396
332.792
329.975
330.752
330.437
328.419
333.305
330.851
334.331
332.353
329.308
328.152
328.561
329.396
325.656
326.151
324.524
324.528
325.119
325.513
324.36
325.235
324.924
324.611
328.113
325.038
325.586
325.547
326.354
324.044
323.287
321.535
324.496
323.008
317.62
316.92
319.433
319.713
321.407
321.076
316.376
319.096
319.829
320.1
318.331
319.045
321.967
324.41
319.905
319.732
317.933
318.808
317.295
317.233
315.643
312.973
311.673
316.347
314.554
313.795
312.148
315.692
313.2
314.221
313.579
312.773
313.257
312.558
316.128
312.665
312.265
314.595
310.497
313.674
307.31
306.503
307.924
308.58
307.164
307.44
308.968
309.075
306.873
308.041
306.248
306.363
308.321
307.397
305.223
306.881
308.795
307.718
308.163
308.196
305.952
302.682
300.367
301.068
302.242
304.368
302.578
302.737
302.885
301.39
304.704
300.955
305.761
301.693
301.968
302.925
303.382
302.251
303.23
301.312
342.199
342.021
340.257
343.642
343.178
344.016
345.094
347.421
344.377
346.486
344.132
344.689
342.361
344.628
345.149
343.592
342.639
341.953
339.606
339.088
333.408
337.85
334.115
338.607
339.789
337.416
338.552
337.247
337.582
336.91
337.472
339.079
336.57
339.281
337.811
337.546
336.794
335.536
336.4
336.706
329.393
329.886
329.427
329.314
332.373
331.014
333.729
331.024
332.222
335.378
333.214
333.435
331.528
332.411
331.917
332.283
330.756
328.084
329.42
330.212
323.483
323.697
323.678
322.072
323.405
325.318
325.731
327.514
326.781
327.408
326.839
325.708
326.988
325.379
327.44
327.419
326.172
323.242
324.408
324.654
318.451
319.157
318.115
319.164
319.806
321.804
319.183
324.703
318.485
320.206
318.115
319.943
320.411
319.011
321.827
318.678
317.927
317.677
315.745
318.611
314.955
312.543
312.777
313.715
313.849
311.997
314.775
314.434
311.598
314.916
317.536
316.375
312.152
313.697
317.151
316.343
310.81
312.314
315.249
313.039
306.667
306.32
308.805
307.815
311.366
310.941
306.775
307.27
307.45
307.467
309.725
308.413
307.74
308.711
307.249
308.599
308.362
306.202
307.496
306.576
301.364
306.449
302.139
301.676
304.668
302.995
302.68
303.442
304.051
300.106
306.189
298.422
304.783
301.152
299.46
303.499
304.264
302.263
301.293
303.018
338.781
340.388
341.679
341.933
342.957
342.911
341.983
344.848
347.437
348.496
346.367
345.864
345.139
344.768
345.907
347.052
343.99
341.185
340.204
344.346
334.712
334.982
335.017
336.677
337.301
338.562
339.923
338.384
342.107
342.014
338.858
338.669
339.253
338.643
338.343
337.83
337.681
336.37
334.503
335.184
330.053
330.344
329.929
332.096
329.501
329.18
330.691
334.465
333.472
333.484
335.547
330.504
333.977
333.171
332.782
331.707
332.508
328.785
330.112
328.053
320.958
325.473
324.106
326.111
326.137
327.557
323.26
325.459
326.682
327.689
328.133
330.96
323.921
326.601
327.064
327.006
321.625
327.636
325.148
324.483
317.232
318.074
320.132
320.071
318.831
320.438
319.298
319.375
320.063
322.081
323.807
320.797
319.825
321.383
322.618
318.444
318.339
320.169
318.738
318.294
312.671
313.172
312.653
315.373
312.38
312.679
312.673
312.007
315.424
318.315
318.6
315.552
314.286
313.158
315.866
315.109
311.58
313.692
312.754
315.324
308.514
310.609
306.539
307.925
309.972
310.387
306.998
307.152
309.397
308.382
311.666
307.496
308.864
308.86
308.879
306.16
308.619
309.455
307.358
306.783
303.837
305.532
303.081
302.391
304.31
300.932
300.704
300.986
300.506
303.468
303.983
303.575
302.269
302.341
306.119
301.843
302.931
301.908
302.286
301.834
341.722
342.094
343.935
343.165
344.136
343.772
346.31
346.064
350.705
346.215
351.007
345.567
347.208
345.035
346.502
342.738
346.955
340.542
342.784
342.788
333.772
342.148
339.902
339.99
340.4
340.193
339.678
340.77
340.973
340.225
340.229
339.999
340.469
336.594
341.285
338.01
340.001
336.755
339.232
336.923
330.729
331.445
331.596
334.06
331.705
331.862
333.541
331.702
331.413
335.598
334.299
332.989
331.999
334.627
334.52
333.016
333.269
331.945
330.529
327.805
324.323
325.363
326.163
325.058
328.925
329.627
327.082
327.969
326.7
328.26
328.729
326.398
326.056
326.358
327.581
326.717
325.118
324.806
323.989
322.205
319.73
317.431
319.178
318.353
317.812
320.438
322.938
319.388
320.162
322.512
323.663
320.42
320.063
319.049
319.819
320.951
321.3
319.648
319.751
319.741
312.394
314.363
311.739
314.546
316.801
316.53
313.873
314.913
315.579
316.424
314.285
315.386
314.781
314.467
313.671
312.19
313.493
314.929
315.243
315.019
308.782
308.426
309.016
308.304
309.79
312.487
307.427
308.275
310.02
309.822
307.66
309.92
310.788
309.018
308.209
308.489
310.037
307.473
309.556
308.295
301.042
298.85
303.687
302.449
302.411
302.893
303.295
301.226
303.25
302.722
303.633
304.905
304.298
301.201
300.964
303.405
303.924
306.8
302.704
302.113
340.93
341.064
344.323
344.458
344.398
346.561
345.429
346.472
347.36
347.417
346.908
347.847
348.117
347.874
343.043
343.971
343.838
340.583
344.761
342.676
336.689
336.705
337.158
336.924
340.073
336.173
339.045
342.75
340.888
340.388
340.922
342.837
341.038
340.645
340.778
338.905
339.458
339.796
338.843
336.906
334.107
331.437
331.828
332.064
332.327
335.582
332.632
333.477
336.073
334.959
335.464
332.993
332.668
334.383
334.531
331.951
331.685
331.78
328.723
329.001
325.519
325.5
322.883
328.902
327.196
329.146
327.343
327.514
329.558
329.061
329.241
328.024
324.999
326.394
327.344
325.051
327.594
321.773
325.442
324.172
317.366
319.266
319.598
319.962
319.777
321.033
322.894
321.246
320.946
320.563
322
321.737
322.538
318.763
321.988
320.034
319.773
320.808
319.729
317.609
312.983
310.527
314.496
314.464
317.324
312.461
316.891
314.775
312.052
314.86
315.919
315.531
314.31
315.476
316.16
314.37
312.864
315.256
313.007
312.089
306.54
306.514
308.693
305.572
309.746
308.45
311.016
309.31
308.657
308.837
308.771
309.158
308.457
309.967
308.462
306.406
308.396
307.578
309.915
304.527
302.873
302.861
301.795
300.793
301.913
303.459
303.647
304.217
301.901
300.347
305.715
302.431
304.166
304.097
303.791
301.805
303.446
301.747
301.597
301.02
341.768
340.395
343.57
343.376
344.792
346.822
346.132
345.781
348.898
349.545
346.729
346.75
344.434
345.539
345.754
345.333
344.155
345.495
342.055
342.637
334.553
342.909
337.642
343.716
338.268
343.162
336.494
343.693
342.057
342.536
343.503
342.239
343.124
339.37
342.724
338.619
343.344
339.694
342.439
336.779
327.883
331.61
330.196
331.457
333.922
333.112
332.694
332.783
335.397
336.51
332.997
335.575
332.394
332.48
335.187
334.856
331.542
329.981
333.068
332.284
324.964
326.464
325.241
324.61
327.073
325.909
327.594
328.324
324.359
325.344
327.925
330.737
328.476
329.339
325.025
326.543
324.938
326.675
324.36
325.159
316.076
321.536
319.973
318.256
323.444
323.913
322.761
321.595
323.311
324.986
320.232
319.225
322.582
321.677
320.242
321.158
319.467
320.138
317.84
319.778
313.249
313.525
315.34
311.731
316.023
314.52
314.637
316.863
316.583
314.836
317.482
314.845
316.849
314.054
316.27
313.569
314.977
317.123
315.229
314.282
308.93
307.428
307.363
307.281
309.86
309.498
308.106
310.515
307.418
307.812
312.82
309.255
307.488
308.492
309.15
310.219
307.321
307.725
310.437
311.486
303.102
303.182
300.286
302.491
304.227
303.59
304.47
301.848
301.569
303.697
304.297
304.225
304.141
301.599
302.805
304.304
299.335
301.147
302.414
300.242
342.699
340.011
343.275
342.077
345.389
345.51
347.086
347.015
348.498
346.714
348.464
347.09
348.904
349.344
349.816
345.59
343.791
346.017
345.488
341.649
336.006
338.867
339.78
339.419
339.581
339.416
339.228
342.27
341.367
342.521
340.597
343.791
340.149
339.172
341.286
340.259
337.123
338.127
338.984
339.137
329.417
330.617
331.406
332.35
330.84
330.872
335.836
332.77
334.814
332.961
332.872
333.166
332.656
332.172
336.045
332.447
332.809
332.934
330.826
329.821
324.023
323.059
327.631
326.714
325.835
327.283
325.851
327.336
328.199
328.176
328.496
324.983
328.328
327.181
329.174
327.758
326.843
325.938
325.912
322.928
318.481
319.313
320.838
322.516
321.171
320.241
320.743
317.845
323.391
321.901
319.952
321.912
321.123
319.585
321.747
322.143
317.527
318.518
318.654
321.142
314.134
313.805
314.349
315.009
314.592
314.136
315.325
314.834
314.477
314.291
316.08
315.784
317.03
314.66
315.67
313.585
311.313
314.456
313.304
313.212
306.542
310.183
306.653
307.545
308.736
309.46
309.47
306.305
307.896
309.637
306.419
310.935
310.596
309.205
309.663
309.726
307.529
308.85
308.561
306.733
304.157
301.269
301.482
303.289
303.582
302.842
302.291
302.043
299.752
301.713
302.577
304.35
300.857
306.38
303.847
304.406
302.227
303.467
301.023
302.267
)
;

boundaryField
{
    hotSide
    {
        type            fixedGradient;
        gradient        nonuniform List<scalar> 
400
(
321.511
322.87
325.591
329.677
335.133
341.965
350.181
359.788
370.794
383.208
397.037
412.289
428.971
447.088
466.647
487.651
510.105
534.011
559.372
586.191
323.738
325.08
327.767
331.802
337.194
343.949
352.078
361.591
372.498
384.81
398.537
413.687
430.268
448.289
467.755
488.672
511.043
534.872
560.161
586.913
326.149
327.47
330.116
334.091
339.406
346.071
354.099
363.503
374.296
386.491
400.101
415.136
431.606
449.52
468.885
489.706
511.988
535.735
560.948
587.63
328.704
330
332.597
336.503
341.73
348.292
356.205
365.485
376.15
388.215
401.695
416.604
432.954
450.753
470.009
490.73
512.919
536.579
561.714
588.325
331.33
332.599
335.142
338.97
344.099
350.546
358.332
367.477
378.003
389.928
403.271
418.047
434.27
451.949
471.095
491.712
513.807
537.382
562.439
588.978
333.918
335.158
337.643
341.389
346.414
352.74
360.392
369.397
379.779
391.562
404.765
419.407
435.503
453.065
472.101
492.618
514.622
538.114
563.096
589.569
336.321
337.531
339.959
343.622
348.544
354.751
362.274
371.142
381.385
393.031
406.101
420.618
436.595
454.047
472.983
493.409
515.33
538.747
563.663
590.076
338.36
339.543
341.92
345.509
350.339
356.44
363.847
372.595
382.718
394.244
407.2
421.608
437.485
454.844
473.695
494.045
515.897
539.253
564.114
590.478
339.852
341.015
343.352
346.885
351.645
357.665
364.985
373.643
383.675
395.113
407.984
422.312
438.116
455.407
474.197
494.491
516.294
539.606
564.428
590.758
340.643
341.795
344.11
347.613
352.334
358.311
365.584
374.193
384.176
395.567
408.393
422.679
438.443
455.699
474.456
494.722
516.498
539.788
564.589
590.901
340.643
341.795
344.11
347.613
352.334
358.311
365.584
374.193
384.176
395.567
408.393
422.679
438.443
455.699
474.456
494.722
516.498
539.788
564.589
590.901
339.852
341.015
343.352
346.885
351.645
357.665
364.985
373.643
383.675
395.113
407.984
422.312
438.116
455.407
474.197
494.491
516.294
539.606
564.428
590.758
338.36
339.543
341.92
345.509
350.339
356.44
363.847
372.595
382.718
394.244
407.2
421.608
437.485
454.844
473.695
494.045
515.897
539.253
564.114
590.478
336.321
337.531
339.959
343.622
348.544
354.751
362.274
371.142
381.385
393.031
406.101
420.618
436.595
454.047
472.983
493.409
515.33
538.747
563.663
590.076
333.918
335.158
337.643
341.389
346.414
352.74
360.392
369.397
379.779
391.562
404.765
419.407
435.503
453.065
472.101
492.618
514.622
538.114
563.096
589.569
331.33
332.599
335.142
338.97
344.099
350.546
358.332
367.477
378.003
389.928
403.271
418.047
434.27
451.949
471.095
491.712
513.807
537.382
562.439
588.978
328.704
330
332.597
336.503
341.73
348.292
356.205
365.485
376.15
388.215
401.695
416.604
432.954
450.753
470.009
490.73
512.919
536.579
561.714
588.325
326.149
327.47
330.116
334.091
339.406
346.071
354.099
363.503
374.296
386.491
400.101
415.136
431.606
449.52
468.885
489.706
511.988
535.735
560.948
587.63
323.738
325.08
327.767
331.802
337.194
343.949
352.078
361.591
372.498
384.81
398.537
413.687
430.268
448.289
467.755
488.672
511.043
534.872
560.161
586.913
321.511
322.87
325.591
329.677
335.133
341.965
350.181
359.788
370.794
383.208
397.037
412.289
428.971
447.088
466.647
487.651
510.105
534.011
559.372
586.191
)
;
    }
    coldSide
    {
        type            mixed;
        refValue        uniform 300;
        refGradient     uniform 0;
        valueFraction   uniform 0.991591;
        source          uniform 0;
        value           nonuniform List<scalar> 
400
(
300.008
300.027
300.029
300.021
300.011
300.012
300.016
299.995
300.025
300.019
300.022
300.025
300.019
300.05
300.011
300.032
300.009
300.024
300.026
300.035
300.022
300.01
300.009
300.015
300.018
300.025
300.017
300.025
299.99
300.024
300.024
299.998
300.011
300.023
300.054
300.047
299.99
300.024