/*--------------------------------*- C++ -*----------------------------------*\
| =========                 |                                                 |
| \\      /  F ield         | OpenFOAM: The Open Source CFD Toolbox           |
|  \\    /   O peration     | Version:  2212                                  |
|   \\  /    A nd           | Website:  www.openfoam.com                      |
|    \\/     M anipulation  |                                                 |
\*---------------------------------------------------------------------------*/
FoamFile
{
    version     2.0;
    format      ascii;
    arch        "LSB;label=32;scalar=64";
    class       volScalarField;
    location    "0";
    object      T;
}
// * * * * * * * * * * * * * * * * * * * * * * * * * * * * * * * * * * * * * //

dimensions      [0 0 0 1 0 0 0];

internalField   nonuniform List<scalar> 
3200
(
337.047
335.771
335.389
335.359
335.867
336.556
337.4
338.295
338.884
339.317
339.42
339.434
338.726
338.041
337.488
336.541
336.104
336.012
336.399
337.271
332.277
331.21
330.888
330.873
331.294
331.902
332.621
333.36
333.896
334.264
334.396
334.367
333.771
333.179
332.726
331.901
331.534
331.456
331.813
332.53
327.429
326.579
326.276
326.285
326.65
327.173
327.766
328.347
328.83
329.139
329.256
329.226
328.732
328.25
327.851
327.147
326.875
326.798
327.113
327.691
322.552
321.856
321.626
321.62
321.934
322.333
322.819
323.292
323.673
323.926
324.053
324
323.602
323.216
322.908
322.324
322.125
322.054
322.329
322.789
317.613
317.069
316.907
316.882
317.139
317.449
317.814
318.183
318.469
318.667
318.783
318.736
318.406
318.141
317.896
317.439
317.297
317.238
317.442
317.82
312.617
312.252
312.121
312.098
312.314
312.52
312.762
313.008
313.217
313.38
313.479
313.414
313.174
313.012
312.82
312.513
312.39
312.37
312.502
312.776
307.593
307.396
307.288
307.278
307.419
307.541
307.685
307.81
307.93
308.05
308.111
308.068
307.925
307.834
307.716
307.526
307.461
307.46
307.535
307.697
302.559
302.485
302.451
302.429
302.499
302.528
302.581
302.612
302.657
302.704
302.717
302.708
302.657
302.63
302.59
302.524
302.491
302.505
302.534
302.585
337.392
336.259
335.779
335.774
336.302
337.11
337.952
338.832
339.475
340.018
340.21
340.095
339.489
338.843
338.066
337.107
336.545
336.408
336.853
337.631
332.561
331.613
331.213
331.207
331.667
332.378
333.062
333.808
334.366
334.844
335.019
334.936
334.395
333.86
333.212
332.382
331.906
331.813
332.166
332.822
327.64
326.894
326.551
326.56
326.927
327.549
328.124
328.731
329.208
329.602
329.732
329.692
329.22
328.781
328.262
327.58
327.174
327.099
327.397
327.929
322.685
322.091
321.835
321.846
322.127
322.651
323.116
323.578
323.97
324.319
324.396
324.355
323.993
323.639
323.235
322.709
322.346
322.298
322.531
322.96
317.682
317.232
317.06
317.042
317.276
317.694
318.042
318.378
318.68
319.002
319.039
318.997
318.744
318.424
318.134
317.767
317.459
317.422
317.589
317.919
312.668
312.338
312.233
312.218
312.371
312.685
312.931
313.154
313.362
313.612
313.646
313.596
313.421
313.198
312.983
312.736
312.509
312.497
312.609
312.851
307.623
307.419
307.369
307.359
307.43
307.647
307.78
307.93
308.027
308.197
308.211
308.184
308.074
307.944
307.811
307.654
307.523
307.541
307.594
307.737
302.558
302.493
302.479
302.466
302.486
302.561
302.607
302.66
302.7
302.755
302.759
302.741
302.703
302.682
302.622
302.563
302.525
302.523
302.543
302.59
337.897
336.934
336.346
336.377
337.14
338.041
338.927
339.805
340.622
341.1
341.363
341.164
340.648
339.866
338.862
338.035
337.162
337.104
337.574
338.224
333.005
332.192
331.711
331.727
332.373
333.155
333.908
334.623
335.361
335.756
336.013
335.813
335.421
334.726
333.9
333.175
332.398
332.369
332.808
333.349
328.025
327.401
326.98
327.003
327.521
328.198
328.825
329.403
330.039
330.354
330.595
330.411
330.114
329.521
328.844
328.221
327.564
327.558
327.935
328.373
323.002
322.527
322.183
322.213
322.582
323.158
323.679
324.126
324.651
324.899
325.12
324.971
324.718
324.25
323.709
323.199
322.642
322.653
322.965
323.322
317.947
317.601
317.318
317.354
317.624
318.075
318.474
318.831
319.217
319.421
319.605
319.473
319.271
318.913
318.53
318.109
317.665
317.681
317.947
318.224
312.863
312.615
312.409
312.432
312.63
312.928
313.243
313.496
313.754
313.902
314.048
313.941
313.8
313.559
313.296
312.981
312.657
312.652
312.873
313.084
307.728
307.604
307.486
307.477
307.595
307.775
307.973
308.124
308.264
308.363
308.46
308.4
308.302
308.16
308.014
307.811
307.603
307.609
307.758
307.877
302.581
302.561
302.516
302.513
302.547
302.605
302.666
302.725
302.769
302.798
302.843
302.831
302.781
302.733
302.692
302.623
302.547
302.553
302.608
302.643
338.816
337.854
337.443
337.425
338.13
339.097
340.091
341.005
341.843
342.41
342.739
342.575
341.951
341.077
339.97
339.048
338.352
338.104
338.517
339.22
333.796
332.992
332.654
332.611
333.189
334.061
334.897
335.701
336.423
336.864
337.192
337.054
336.512
335.766
334.821
334.048
333.444
333.262
333.614
334.22
328.705
328.071
327.777
327.734
328.198
328.944
329.635
330.312
330.944
331.291
331.577
331.453
331.013
330.375
329.592
328.971
328.453
328.32
328.606
329.119
323.565
323.077
322.833
322.8
323.152
323.783
324.314
324.895
325.407
325.676
325.912
325.822
325.451
324.944
324.306
323.799
323.375
323.3
323.535
323.928
318.395
317.997
317.831
317.809
318.058
318.545
318.977
319.424
319.828
320.01
320.216
320.121
319.847
319.473
318.979
318.562
318.237
318.202
318.403
318.677
313.194
312.875
312.767
312.762
312.913
313.295
313.6
313.906
314.205
314.309
314.481
314.386
314.208
313.948
313.594
313.289
313.068
313.056
313.214
313.381
307.941
307.731
307.695
307.697
307.762
308.006
308.192
308.355
308.551
308.605
308.706
308.653
308.54
308.374
308.168
308.01
307.879
307.857
307.958
308.054
302.67
302.578
302.588
302.578
302.605
302.685
302.757
302.806
302.867
302.901
302.924
302.908
302.87
302.809
302.729
302.684
302.641
302.629
302.678
302.705
339.914
339.013
338.571
338.671
339.34
340.323
341.372
342.33
343.197
343.862
344.292
343.993
343.345
342.447
341.336
340.438
339.724
339.366
339.65
340.433
334.744
333.988
333.622
333.697
334.257
335.116
336.028
336.849
337.572
338.139
338.524
338.281
337.718
336.95
335.996
335.24
334.648
334.345
334.606
335.278
329.506
328.87
328.588
328.647
329.115
329.861
330.62
331.308
331.915
332.348
332.698
332.528
332.022
331.405
330.587
329.962
329.478
329.248
329.466
330.033
324.244
323.691
323.464
323.522
323.906
324.527
325.118
325.699
326.188
326.524
326.829
326.694
326.274
325.8
325.11
324.621
324.221
324.046
324.228
324.699
318.914
318.474
318.305
318.349
318.647
319.139
319.578
320.056
320.426
320.675
320.926
320.808
320.476
320.115
319.566
319.223
318.911
318.78
318.929
319.281
313.538
313.232
313.114
313.133
313.354
313.688
314.04
314.379
314.615
314.794
314.986
314.887
314.647
314.398
313.998
313.785
313.548
313.475
313.588
313.828
308.141
307.968
307.879
307.901
308.047
308.206
308.455
308.655
308.795
308.866
309.015
308.936
308.799
308.659
308.425
308.304
308.161
308.107
308.191
308.318
302.735
302.677
302.64
302.65
302.707
302.754
302.844
302.899
302.948
302.967
303.018
302.983
302.956
302.902
302.839
302.783
302.736
302.717
302.744
302.789
341.206
340.329
339.956
340.168
340.641
341.649
342.807
343.945
344.838
345.466
345.927
345.741
344.983
344.041
342.957
341.935
341.169
340.831
341.139
341.708
335.878
335.124
334.816
334.966
335.387
336.258
337.242
338.249
339.004
339.543
339.931
339.798
339.155
338.338
337.405
336.54
335.9
335.655
335.895
336.36
330.476
329.864
329.593
329.705
330.078
330.787
331.628
332.467
333.077
333.568
333.874
333.773
333.231
332.554
331.793
331.059
330.547
330.36
330.549
330.908
325.008
324.515
324.313
324.408
324.692
325.264
325.976
326.654
327.113
327.536
327.763
327.705
327.229
326.718
326.12
325.513
325.1
324.981
325.138
325.378
319.498
319.117
318.973
319.05
319.256
319.701
320.289
320.775
321.127
321.459
321.631
321.597
321.202
320.824
320.377
319.907
319.59
319.519
319.642
319.794
313.943
313.696
313.584
313.654
313.788
314.089
314.547
314.873
315.104
315.365
315.473
315.433
315.168
314.903
314.58
314.255
314.045
313.97
314.078
314.165
308.371
308.229
308.155
308.204
308.282
308.466
308.763
308.942
309.074
309.229
309.305
309.272
309.106
308.944
308.775
308.559
308.429
308.388
308.491
308.524
302.808
302.764
302.733
302.752
302.786
302.837
302.944
302.998
303.037
303.096
303.115
303.116
303.049
302.999
302.943
302.863
302.828
302.806
302.85
302.869
342.795
342.045
341.647
341.724
342.341
343.173
344.411
345.434
346.407
347.144
347.618
347.375
346.669
345.77
344.499
343.53
342.71
342.361
342.699
343.355
337.232
336.6
336.27
336.31
336.871
337.57
338.622
339.524
340.361
340.988
341.407
341.211
340.591
339.836
338.761
337.922
337.249
336.941
337.244
337.789
331.627
331.086
330.813
330.854
331.339
331.904
332.779
333.575
334.244
334.777
335.149
334.985
334.45
333.844
332.942
332.215
331.679
331.415
331.681
332.111
325.965
325.513
325.302
325.324
325.752
326.183
326.906
327.578
328.072
328.53
328.826
328.7
328.246
327.791
327.043
326.454
326.039
325.797
326.054
326.387
320.265
319.888
319.76
319.735
320.093
320.398
320.997
321.508
321.875
322.252
322.474
322.369
322.005
321.681
321.096
320.632
320.32
320.144
320.349
320.587
314.51
314.238
314.148
314.102
314.4
314.585
315.031
315.387
315.645
315.925
316.09
316.008
315.747
315.524
315.1
314.784
314.548
314.425
314.574
314.758
308.725
308.557
308.51
308.477
308.65
308.749
309.032
309.239
309.407
309.575
309.668
309.618
309.472
309.328
309.091
308.9
308.742
308.671
308.767
308.878
302.92
302.869
302.851
302.846
302.904
302.933
303.024
303.098
303.153
303.218
303.243
303.231
303.184
303.13
303.047
302.99
302.934
302.894
302.936
302.973
344.378
343.786
343.391
343.489
343.999
344.898
345.951
347.088
348.081
348.82
349.227
348.994
348.318
347.514
346.356
345.17
344.445
344.014
344.298
344.751
338.603
338.137
337.796
337.841
338.288
339.058
339.976
340.952
341.808
342.425
342.81
342.587
342.027
341.352
340.352
339.349
338.738
338.361
338.619
338.996
332.766
332.409
332.119
332.14
332.527
333.155
333.946
334.771
335.493
335.999
336.346
336.132
335.677
335.095
334.296
333.459
332.935
332.609
332.833
333.154
326.867
326.611
326.353
326.367
326.737
327.219
327.855
328.518
329.109
329.529
329.832
329.634
329.258
328.797
328.157
327.499
327.06
326.787
326.976
327.215
320.941
320.734
320.564
320.546
320.88
321.251
321.718
322.239
322.7
323.001
323.253
323.09
322.818
322.457
321.981
321.465
321.12
320.911
321.063
321.244
314.986
314.834
314.737
314.684
314.966
315.231
315.551
315.917
316.256
316.443
316.635
316.529
316.336
316.094
315.756
315.359
315.14
314.966
315.097
315.224
309.014
308.919
308.873
308.841
308.99
309.158
309.345
309.58
309.78
309.886
310.011
309.945
309.828
309.672
309.477
309.235
309.117
309.008
309.086
309.167
303.029
302.999
302.979
302.958
303.014
303.076
303.139
303.217
303.279
303.319
303.353
303.332
303.289
303.245
303.172
303.103
303.061
303.028
303.045
303.074
346.187
345.594
345.189
345.192
345.706
346.554
347.512
348.743
349.691
350.5
350.82
350.651
349.981
349.142
348.044
347.013
346.28
345.917
346.109
346.4
340.202
339.684
339.334
339.345
339.787
340.5
341.332
342.392
343.204
343.915
344.18
344.046
343.482
342.745
341.83
340.923
340.331
340.028
340.177
340.432
334.157
333.69
333.417
333.415
333.788
334.377
335.078
335.97
336.653
337.272
337.498
337.377
336.92
336.308
335.546
334.743
334.294
334.037
334.147
334.36
328.034
327.643
327.447
327.432
327.747
328.224
328.797
329.493
330.08
330.564
330.762
330.658
330.285
329.81
329.186
328.5
328.156
327.96
328.035
328.223
321.854
321.545
321.404
321.394
321.654
322.029
322.461
322.984
323.467
323.836
323.99
323.886
323.592
323.24
322.765
322.243
321.956
321.847
321.875
322.032
315.62
315.407
315.299
315.309
315.517
315.783
316.095
316.453
316.808
317.064
317.175
317.077
316.881
316.626
316.3
315.935
315.717
315.667
315.673
315.776
309.384
309.263
309.189
309.208
309.337
309.487
309.68
309.893
310.093
310.263
310.335
310.267
310.157
309.995
309.792
309.594
309.443
309.445
309.425
309.495
303.156
303.107
303.08
303.082
303.128
303.179
303.241
303.323
303.381
303.444
303.471
303.444
303.396
303.354
303.28
303.234
303.171
303.18
303.164
303.178
347.977
347.455
347.044
347.133
347.53
348.265
349.185
350.35
351.222
351.976
352.402
352.291
351.585
350.606
349.621
348.714
348.008
347.729
347.835
348.193
341.739
341.286
340.928
341.016
341.376
341.999
342.78
343.778
344.528
345.178
345.534
345.468
344.851
344.011
343.202
342.404
341.821
341.595
341.688
341.999
335.426
335.049
334.734
334.812
335.149
335.659
336.313
337.14
337.786
338.327
338.599
338.6
338.073
337.382
336.678
336.018
335.546
335.347
335.432
335.697
329.052
328.758
328.515
328.549
328.847
329.246
329.794
330.44
331.008
331.417
331.656
331.697
331.232
330.687
330.098
329.557
329.185
329.035
329.092
329.326
322.645
322.412
322.251
322.248
322.49
322.797
323.234
323.734
324.184
324.478
324.674
324.713
324.35
323.94
323.475
323.028
322.773
322.683
322.709
322.888
316.199
316.033
315.954
315.91
316.096
316.328
316.632
317.004
317.307
317.498
317.659
317.671
317.441
317.148
316.816
316.484
316.315
316.264
316.268
316.406
309.716
309.632
309.603
309.569
309.677
309.814
310.002
310.243
310.415
310.514
310.624
310.621
310.499
310.318
310.113
309.899
309.815
309.799
309.771
309.873
303.245
303.231
303.228
303.21
303.241
303.283
303.359
303.445
303.498
303.523
303.571
303.564
303.52
303.465
303.401
303.334
303.287
303.292
303.277
303.306
349.937
349.286
348.971
348.958
349.277
349.976
350.766
351.74
352.736
353.407
353.877
353.766
353.234
352.249
351.251
350.363
349.724
349.445
349.545
349.934
343.444
342.868
342.613
342.608
342.877
343.459
344.162
345
345.855
346.414
346.829
346.742
346.314
345.446
344.606
343.861
343.308
343.104
343.186
343.5
336.877
336.384
336.158
336.166
336.407
336.875
337.483
338.201
338.916
339.367
339.708
339.637
339.308
338.59
337.892
337.258
336.808
336.658
336.722
336.952
330.253
329.859
329.651
329.669
329.887
330.237
330.759
331.355
331.925
332.285
332.532
332.492
332.232
331.64
331.099
330.589
330.242
330.104
330.178
330.345
323.591
323.268
323.107
323.133
323.332
323.559
323.976
324.461
324.88
325.159
325.349
325.307
325.12
324.644
324.256
323.84
323.601
323.493
323.542
323.664
316.878
316.648
316.54
316.562
316.722
316.877
317.137
317.535
317.809
317.998
318.132
318.089
317.987
317.632
317.37
317.055
316.906
316.837
316.848
316.951
310.143
310.012
309.962
309.967
310.06
310.145
310.287
310.551
310.707
310.806
310.908
310.868
310.823
310.587
310.446
310.247
310.173
310.123
310.127
310.208
303.39
303.36
303.341
303.334
303.382
303.408
303.449
303.533
303.588
303.618
303.67
303.643
303.629
303.541
303.506
303.44
303.411
303.394
303.391
303.422
351.723
351.089
350.734
350.76
351.064
351.675
352.42
353.301
354.125
354.817
355.301
355.03
354.684
353.805
352.87
352.091
351.462
351.234
351.185
351.82
344.969
344.449
344.136
344.166
344.404
344.916
345.569
346.341
347.046
347.665
348.081
347.855
347.565
346.843
345.999
345.327
344.842
344.643
344.606
345.142
338.146
337.726
337.472
337.471
337.711
338.1
338.65
339.299
339.939
340.432
340.774
340.613
340.344
339.757
339.035
338.503
338.122
337.961
337.912
338.362
331.294
330.941
330.739
330.727
330.948
331.264
331.707
332.227
332.763
333.166
333.44
333.314
333.076
332.616
332.043
331.62
331.326
331.195
331.149
331.495
324.403
324.112
323.957
323.942
324.112
324.391
324.715
325.118
325.541
325.846
326.03
325.976
325.763
325.415
324.993
324.665
324.44
324.331
324.316
324.559
317.477
317.259
317.152
317.125
317.239
317.466
317.669
317.971
318.29
318.478
318.632
318.603
318.449
318.194
317.89
317.662
317.514
317.413
317.434
317.587
310.522
310.371
310.325
310.294
310.358
310.5
310.617
310.818
311.009
311.101
311.187
311.195
311.099
310.931
310.769
310.634
310.532
310.464
310.487
310.591
303.529
303.479
303.466
303.441
303.476
303.505
303.553
303.629
303.696
303.718
303.737
303.749
303.716
303.653
303.615
303.574
303.515
303.515
303.513
303.558
353.543
352.995
352.584
352.577
352.805
353.422
353.995
354.74
355.535
356.184
356.506
356.389
356.067
355.272
354.407
353.69
353.306
352.993
353.068
353.551
346.571
346.111
345.756
345.751
345.929
346.469
346.953
347.608
348.254
348.854
349.117
349.048
348.741
348.072
347.371
346.732
346.449
346.182
346.23
346.671
339.543
339.161
338.844
338.839
338.994
339.462
339.819
340.392
340.931
341.453
341.643
341.629
341.354
340.797
340.241
339.702
339.48
339.275
339.277
339.674
332.451
332.11
331.872
331.852
331.985
332.378
332.651
333.119
333.561
334.007
334.138
334.135
333.917
333.459
333.041
332.599
332.422
332.258
332.246
332.559
325.32
325.003
324.818
324.841
324.934
325.246
325.444
325.803
326.148
326.488
326.588
326.588
326.43
326.074
325.765
325.436
325.298
325.173
325.155
325.388
318.148
317.893
317.741
317.773
317.838
318.078
318.208
318.465
318.697
318.969
319.027
319.017
318.911
318.665
318.437
318.196
318.122
318.03
317.991
318.188
310.923
310.748
310.66
310.683
310.734
310.872
310.94
311.113
311.242
311.416
311.442
311.44
311.363
311.222
311.09
310.95
310.896
310.834
310.805
310.955
303.677
303.606
303.574
303.581
303.61
303.644
303.671
303.73
303.767
303.837
303.833
303.841
303.811
303.76
303.725
303.682
303.662
303.626
303.614
303.683
355.552
354.917
354.511
354.42
354.608
355.055
355.573
356.299
357.027
357.523
357.648
357.793
357.359
356.683
355.995
355.272
355.021
354.781
354.818
355.296
348.31
347.781
347.43
347.349
347.521
347.869
348.315
348.948
349.558
350.032
350.095
350.259
349.879
349.335
348.722
348.131
347.913
347.747
347.748
348.168
340.984
340.528
340.271
340.165
340.356
340.635
340.99
341.53
342.053
342.449
342.489
342.637
342.353
341.896
341.377
340.909
340.73
340.597
340.561
340.925
333.606
333.238
333.035
332.95
333.12
333.327
333.597
334.064
334.476
334.8
334.831
334.964
334.767
334.374
333.945
333.591
333.453
333.34
333.305
333.61
326.196
325.921
325.735
325.688
325.821
325.966
326.151
326.575
326.869
327.121
327.115
327.236
327.111
326.808
326.481
326.218
326.11
326.003
325.965
326.215
318.753
318.572
318.397
318.361
318.441
318.57
318.666
319.003
319.207
319.434
319.41
319.475
319.409
319.198
318.972
318.785
318.702
318.629
318.575
318.765
311.286
311.161
311.066
311.039
311.069
311.156
311.209
311.407
311.534
311.695
311.652
311.703
311.674
311.553
311.404
311.31
311.238
311.216
311.168
311.28
303.777
303.741
303.723
303.709
303.722
303.75
303.75
303.821
303.859
303.93
303.91
303.924
303.915
303.87
303.83
303.804
303.76
303.758
303.745
303.78
357.295
356.848
356.37
356.233
356.309
356.621
357.134
357.909
358.422
358.793
358.956
359.009
358.609
358.019
357.571
357.013
356.615
356.421
356.497
356.881
349.828
349.443
349.036
348.902
348.972
349.237
349.672
350.349
350.828
351.109
351.24
351.312
350.966
350.47
350.101
349.634
349.303
349.159
349.205
349.532
342.273
341.976
341.597
341.515
341.574
341.779
342.14
342.721
343.144
343.375
343.485
343.549
343.259
342.849
342.556
342.162
341.884
341.798
341.813
342.086
334.669
334.423
334.12
334.072
334.116
334.26
334.533
335.038
335.395
335.587
335.682
335.73
335.496
335.178
334.928
334.6
334.379
334.321
334.361
334.574
327.027
326.84
326.593
326.563
326.596
326.703
326.899
327.311
327.585
327.734
327.822
327.863
327.699
327.447
327.241
326.981
326.814
326.771
326.815
326.974
319.359
319.221
319.036
319.017
319.026
319.111
319.234
319.525
319.716
319.841
319.918
319.949
319.826
319.657
319.508
319.303
319.171
319.165
319.207
319.31
311.636
311.567
311.438
311.446
311.438
311.481
311.548
311.727
311.837
311.919
311.979
311.988
311.908
311.832
311.74
311.613
311.533
311.506
311.543
311.606
303.903
303.877
303.838
303.838
303.836
303.845
303.869
303.93
303.968
304.003
304.015
304.015
303.992
303.962
303.941
303.897
303.862
303.865
303.87
303.888
359.098
358.628
358.33
358.138
358.067
358.285
358.685
359.226
359.784
359.954
360.255
360.166
359.858
359.413
358.917
358.526
358.202
358.137
358.274
358.516
351.404
350.995
350.709
350.541
350.475
350.696
351.017
351.497
351.967
352.127
352.369
352.32
352.052
351.681
351.266
350.978
350.698
350.644
350.761
350.954
343.619
343.263
343.023
342.888
342.822
343.011
343.293
343.69
344.085
344.223
344.414
344.419
344.206
343.895
343.541
343.313
343.063
343.05
343.155
343.289
335.78
335.467
335.301
335.182
335.136
335.26
335.479
335.816
336.161
336.275
336.417
336.444
336.295
336.001
335.761
335.566
335.35
335.341
335.447
335.542
327.889
327.642
327.527
327.424
327.387
327.468
327.643
327.882
328.187
328.269
328.375
328.406
328.305
328.065
327.893
327.762
327.576
327.564
327.669
327.708
319.951
319.778
319.705
319.636
319.62
319.656
319.781
319.933
320.183
320.2
320.289
320.331
320.25
320.083
319.978
319.864
319.773
319.724
319.819
319.839
311.973
311.889
311.853
311.805
311.798
311.816
311.894
311.961
312.124
312.121
312.179
312.228
312.162
312.074
312.028
311.935
311.885
311.85
311.912
311.937
304.009
303.985
303.973
303.966
303.958
303.958
303.985
304.005
304.062
304.047
304.096
304.094
304.072
304.054
304.036
303.994
303.985
303.969
303.991
303.991
360.915
360.411
360.056
359.924
359.746
359.878
360.233
360.674
361.047
361.189
361.456
361.383
361.155
360.773
360.438
359.958
359.776
359.809
360.08
360.287
352.943
352.555
352.228
352.122
351.96
352.06
352.382
352.776
353.073
353.184
353.433
353.366
353.204
352.882
352.595
352.185
352.042
352.068
352.346
352.49
344.947
344.627
344.328
344.239
344.102
344.18
344.464
344.789
345.031
345.111
345.331
345.275
345.173
344.889
344.639
344.319
344.202
344.229
344.483
344.574
336.888
336.606
336.358
336.297
336.176
336.238
336.471
336.741
336.915
336.976
337.175
337.122
337.056
336.828
336.613
336.358
336.279
336.3
336.556
336.601
328.768
328.505
328.342
328.29
328.175
328.245
328.417
328.63
328.744
328.821
328.989
328.93
328.884
328.693
328.553
328.347
328.314
328.315
328.538
328.558
320.569
320.38
320.288
320.259
320.168
320.221
320.333
320.475
320.553
320.633
320.743
320.695
320.659
320.55
320.427
320.31
320.28
320.289
320.436
320.454
312.356
312.237
312.206
312.188
312.123
312.159
312.215
312.304
312.335
312.411
312.458
312.44
312.431
312.354
312.28
312.204
312.195
312.211
312.281
312.316
304.142
304.102
304.096
304.082
304.067
304.075
304.097
304.118
304.139
304.149
304.168
304.173
304.175
304.14
304.12
304.085
304.092
304.102
304.115
304.134
362.728
362.238
361.791
361.449
361.413
361.409
361.715
362.015
362.217
362.531
362.615
362.592
362.466
362.14
361.688
361.336
361.22
361.265
361.622
361.958
354.531
354.151
353.721
353.427
353.427
353.401
353.654
353.914
354.072
354.382
354.436
354.434
354.332
354.065
353.697
353.393
353.298
353.34
353.681
353.937
346.272
345.966
345.567
345.315
345.358
345.348
345.526
345.736
345.862
346.131
346.18
346.206
346.105
345.9
345.596
345.349
345.274
345.304
345.604
345.802
337.957
337.696
337.349
337.141
337.215
337.203
337.338
337.49
337.6
337.816
337.866
337.893
337.831
337.656
337.421
337.218
337.165
337.199
337.431
337.572
329.585
329.373
329.116
328.953
329.018
328.979
329.091
329.187
329.289
329.471
329.502
329.517
329.496
329.365
329.181
329.008
328.997
329.006
329.207
329.284
321.161
321.026
320.835
320.728
320.776
320.727
320.816
320.869
320.957
321.088
321.133
321.098
321.112
321.015
320.887
320.756
320.759
320.753
320.935
320.951
312.719
312.659
312.524
312.475
312.501
312.455
312.488
312.552
312.595
312.667
312.716
312.682
312.702
312.645
312.562
312.471
312.489
312.474
312.613
312.589
304.252
304.252
304.191
304.185
304.198
304.175
304.18
304.21
304.23
304.242
304.262
304.26
304.264
304.236
304.211
304.186
304.187
304.185
304.23
304.215
364.266
363.642
363.293
362.868
362.862
362.798
363.013
363.296
363.365
363.714
363.764
363.655
363.529
363.319
362.94
362.675
362.612
362.669
363.091
363.501
355.857
355.333
355.015
354.626
354.634
354.568
354.771
355.007
355.083
355.388
355.424
355.35
355.252
355.057
354.76
354.519
354.491
354.534
354.92
355.253
347.407
346.959
346.67
346.316
346.334
346.285
346.452
346.664
346.742
346.971
347.002
346.959
346.903
346.724
346.475
346.28
346.263
346.296
346.656
346.904
338.909
338.498
338.253
337.962
337.979
337.951
338.08
338.247
338.336
338.503
338.536
338.498
338.48
338.305
338.119
337.988
337.954
337.984
338.32
338.494
330.347
329.984
329.789
329.564
329.594
329.557
329.663
329.798
329.876
329.985
330.026
329.994
329.994
329.83
329.719
329.631
329.595
329.624
329.91
330.016
321.724
321.451
321.322
321.149
321.169
321.141
321.238
321.317
321.377
321.45
321.503
321.48
321.463
321.343
321.282
321.23
321.186
321.205
321.424
321.483
313.072
312.894
312.826
312.714
312.717
312.694
312.766
312.796
312.855
312.906
312.945
312.919
312.912
312.845
312.796
312.769
312.741
312.746
312.89
312.919
304.385
304.324
304.3
304.267
304.263
304.244
304.294
304.273
304.314
304.327
304.344
304.324
304.326
304.313
304.287
304.285
304.273
304.278
304.325
304.337
365.458
364.725
364.421
363.978
363.926
363.862
363.95
364.144
364.323
364.506
364.625
364.481
364.404
364.17
363.88
363.744
363.654
363.857
364.204
364.568
356.843
356.195
355.934
355.554
355.511
355.472
355.531
355.713
355.884
356.047
356.135
356.006
355.972
355.777
355.515
355.399
355.325
355.507
355.839
356.134
348.173
347.624
347.394
347.074
347.035
347.02
347.046
347.251
347.376
347.515
347.596
347.492
347.5
347.33
347.086
347.018
346.939
347.093
347.393
347.618
339.477
339.016
338.831
338.571
338.514
338.537
338.557
338.718
338.832
338.932
339.006
338.939
338.956
338.816
338.605
338.57
338.495
338.625
338.87
339.045
330.734
330.394
330.235
330.028
329.957
330.021
330.031
330.147
330.229
330.31
330.384
330.34
330.36
330.251
330.112
330.075
330.026
330.119
330.296
330.421
321.983
321.741
321.621
321.463
321.412
321.469
321.478
321.554
321.625
321.67
321.726
321.72
321.729
321.621
321.541
321.528
321.508
321.552
321.678
321.767
313.217
313.066
312.998
312.899
312.849
312.901
312.889
312.951
313.003
313.025
313.058
313.075
313.052
312.991
312.948
312.964
312.95
312.959
313.031
313.08
304.432
304.379
304.357
304.324
304.305
304.324
304.324
304.338
304.354
304.37
304.375
304.394
304.373
304.347
304.347
304.353
304.345
304.353
304.379
304.397
)
;

boundaryField
{
    hotSide
    {
        type            fixedGradient;
        gradient        nonuniform List<scalar> 
400
(
375.062
378.997
385.926
395.765
408.203
422.797
439.068
456.581
474.971
493.949
513.293
532.837
552.457
572.061
591.584
610.975
630.2
649.235
668.07
686.708
359.536
363.791
371.254
381.821
395.118
410.62
427.781
446.119
465.242
484.85
504.719
524.687
544.636
564.485
584.176
603.669
622.94
641.972
660.764
679.326
352.017
356.871
364.888
375.955
389.698
405.595
423.101
441.728
461.081
480.854
500.819
520.814
540.726
560.476
580.018
599.32
618.369
637.159
655.697
674.003
351.968
357.678
366.287
377.675
391.52
407.37
424.739
443.176
462.297
481.798
501.45
521.086
540.595
559.906
578.978
597.793
616.35
634.655
652.729
670.599
357.289
364.003
373.273
384.974
398.835
414.484
431.509
449.507
468.122
487.059
506.094
525.065
543.866
562.438
580.755
598.816
616.636
634.238
651.655
668.922
365.602
373.372
383.394
395.53
409.535
425.088
441.826
459.386
477.435
495.694
513.949
532.054
549.925
567.525
584.858
601.946
618.829
635.55
652.152
668.68
374.949
383.776
394.636
407.37
421.738
437.43
454.098
471.39
488.975
506.583
524.015
541.152
557.949
574.415
590.595
606.553
622.358
638.075
653.761
669.466
383.834
393.671
405.413
418.884
433.828
449.921
466.794
484.065
501.38
518.453
535.099
551.241
566.892
582.132
597.069
611.819
626.486
641.159
655.905
670.777
391.079
401.799
414.383
428.639
444.292
460.988
478.309
495.81
513.072
529.771
545.726
560.914
575.435
589.46
603.178
616.762
630.351
644.052
657.939
672.062
395.741
407.108
420.356
435.289
451.617
468.955
486.828
504.71
522.094
538.59
554.015
568.407
581.967
594.968
607.677
620.316
633.052
645.999
659.232
672.796
397.153
408.805
422.384
437.691
454.43
472.196
490.474
508.678
526.228
542.681
557.843
571.798
584.82
597.251
609.406
621.537
633.822
646.379
659.282
672.571
395.027
406.523
419.991
435.233
451.948
469.723
488.037
506.299
523.926
540.472
555.74
569.805
582.933
595.46
607.7
619.906
632.258
644.879
657.844
671.198
389.559
400.464
413.395
428.151
444.431
461.825
479.836
497.917
515.544
532.318
548.038
562.725
576.565
589.817
602.747
615.581
628.494
641.61
655.015
668.758
381.455
391.423
403.513
417.529
433.168
450.032
467.65
485.531
503.219
520.359
536.747
552.339
567.223
581.563
595.551
609.372
623.181
637.101
651.223
665.607
371.897
380.71
391.818
405.038
420.061
436.485
453.85
471.691
489.588
507.211
524.347
540.903
556.89
572.393
587.537
602.461
617.297
632.16
647.141
662.305
362.544
370.104
380.22
392.725
407.289
423.475
440.794
458.774
477.002
495.153
513.005
530.434
547.406
563.953
580.153
596.106
611.925
627.713
643.559
659.528
355.584
361.902
371.092
382.996
397.242
413.326
430.705
448.877
467.421
486.014
504.429
522.532
540.264
557.625
574.663
591.455
608.096
624.68
641.292
657.996
353.641
358.864
367.212
378.537
392.426
408.311
425.604
443.781
462.418
481.198
499.9
518.383
536.576
554.462
572.069
589.455
606.699
623.889
641.103
658.396
359.045
363.457
371.034
381.645
394.882
410.183
426.968
444.725
463.045
481.62
500.233
518.74
537.061
555.164
573.057
590.782
608.4
625.983
643.598
661.289
372.52
376.438
383.305
393.015
405.232
419.481
435.26
452.109
469.653
487.597
505.729
523.9
542.019
560.037
577.944
595.761
613.525
631.287
649.093
666.974
)
;
    }
    coldSide
    {
        type            mixed;
        refValue        uniform 300;
        refGradient     uniform 0;
        valueFraction   uniform 0.991591;
        source          uniform 0;
        value           nonuniform List<scalar> 
400
(
300.022
300.022
300.022
300.022
300.023
300.024
300.025
300.025
300.027
300.027
300.029
300.03
300.031
300.032
300.033
300.034
300.035
300.036
300.037
300.037
300.021
300.021
300.022
300.022
300.023
300.023
300.024
300.025
300.026
300.027
300.028
300.029
300.03
300.031
300.033
300.034
300.034
300.036