/*--------------------------------*- C++ -*----------------------------------*\
| =========                 |                                                 |
| \\      /  F ield         | OpenFOAM: The Open Source CFD Toolbox           |
|  \\    /   O peration     | Version:  2212                                  |
|   \\  /    A nd           | Website:  www.openfoam.com                      |
|    \\/     M anipulation  |                                                 |
\*---------------------------------------------------------------------------*/
FoamFile
{
    version     2.0;
    format      ascii;
    arch        "LSB;label=32;scalar=64";
    class       volScalarField;
    location    "0";
    object      T;
}
// * * * * * * * * * * * * * * * * * * * * * * * * * * * * * * * * * * * * * //

dimensions      [0 0 0 1 0 0 0];

internalField   nonuniform List<scalar> 
3200
(
348.975
349.645
350.7
351.689
352.378
352.735
352.904
353.136
353.678
353.468
352.934
352.611
352.1
351.26
350.504
349.743
348.768
347.567
346.13
345.181
342.653
343.161
344.071
344.947
345.562
345.796
345.938
346.188
346.661
346.428
345.995
345.713
345.236
344.589
343.862
343.206
342.358
341.326
340.093
339.298
336.181
336.603
337.371
338.165
338.624
338.812
338.957
339.204
339.61
339.342
339.042
338.724
338.347
337.831
337.202
336.649
335.917
335.025
334.004
333.351
329.692
330.023
330.644
331.309
331.652
331.828
331.949
332.109
332.521
332.259
332.034
331.735
331.411
331.048
330.509
330.072
329.419
328.709
327.911
327.371
323.174
323.415
323.884
324.391
324.698
324.808
324.914
325.029
325.376
325.151
324.957
324.739
324.469
324.236
323.801
323.436
322.897
322.326
321.773
321.341
316.6
316.764
317.09
317.446
317.687
317.741
317.822
317.888
318.172
318.015
317.83
317.698
317.546
317.333
317.037
316.764
316.405
315.944
315.607
315.298
309.991
310.094
310.255
310.459
310.63
310.672
310.711
310.734
310.918
310.849
310.718
310.627
310.552
310.413
310.239
310.099
309.872
309.569
309.38
309.24
303.357
303.381
303.444
303.488
303.566
303.592
303.575
303.595
303.666
303.624
303.574
303.558
303.519
303.488
303.431
303.387
303.299
303.212
303.144
303.109
349.765
350.71
351.764
352.419
353.238
353.767
354.123
354.341
354.613
354.484
354.017
353.825
353.269
352.451
351.577
350.657
349.773
348.527
347.218
346.024
343.23
344.038
344.943
345.48
346.234
346.656
346.996
347.18
347.404
347.299
346.875
346.729
346.23
345.492
344.768
343.96
343.149
342.11
340.967
339.996
336.72
337.273
338.102
338.511
339.206
339.515
339.827
340.027
340.158
340.092
339.717
339.649
339.155
338.53
337.961
337.255
336.531
335.657
334.68
333.947
330.13
330.503
331.229
331.547
332.134
332.353
332.65
332.77
332.863
332.869
332.525
332.494
332.08
331.6
331.121
330.543
329.9
329.202
328.35
327.848
323.497
323.756
324.302
324.573
325.056
325.166
325.44
325.527
325.576
325.582
325.343
325.306
324.968
324.62
324.233
323.815
323.305
322.698
322.056
321.75
316.82
316.969
317.353
317.585
317.918
317.971
318.185
318.275
318.298
318.313
318.13
318.07
317.856
317.644
317.348
317.067
316.645
316.219
315.778
315.599
310.121
310.214
310.389
310.599
310.769
310.782
310.93
311.014
311.026
311
310.914
310.875
310.74
310.611
310.417
310.254
309.986
309.734
309.489
309.4
303.396
303.447
303.47
303.571
303.599
303.592
303.677
303.678
303.706
303.689
303.646
303.63
303.587
303.567
303.493
303.42
303.362
303.243
303.186
303.173
350.995
351.909
352.93
353.763
354.577
355.155
355.546
355.939
356.027
355.845
355.51
355.146
354.597
353.893
352.896
351.971
351.13
349.728
348.521
347.353
344.274
345.04
345.919
346.631
347.313
347.833
348.142
348.551
348.603
348.46
348.101
347.865
347.363
346.709
345.896
345.051
344.371
343.124
342.088
341.149
337.511
338.15
338.89
339.493
340.073
340.476
340.728
341.147
341.163
341.019
340.72
340.54
340.095
339.555
338.89
338.134
337.604
336.526
335.625
334.873
330.72
331.219
331.854
332.362
332.845
333.137
333.337
333.662
333.668
333.589
333.336
333.143
332.843
332.377
331.906
331.239
330.815
329.859
329.133
328.526
323.944
324.326
324.744
325.204
325.598
325.803
325.947
326.184
326.233
326.102
325.986
325.783
325.546
325.154
324.848
324.34
323.977
323.21
322.649
322.183
317.177
317.382
317.685
318.019
318.324
318.44
318.525
318.706
318.789
318.649
318.603
318.399
318.267
317.992
317.771
317.391
317.137
316.589
316.168
315.843
310.337
310.437
310.649
310.794
311.032
311.093
311.107
311.224
311.303
311.177
311.178
311.024
311.003
310.831
310.682
310.414
310.295
309.986
309.681
309.527
303.471
303.5
303.578
303.614
303.701
303.705
303.729
303.762
303.79
303.725
303.755
303.7
303.673
303.643
303.585
303.478
303.455
303.345
303.254
303.204
352.439
353.298
354.424
355.178
355.926
356.622
357.112
357.306
357.31
357.423
357.187
356.733
356.075
355.528
354.379
353.278
352.485
351.211
349.88
348.745
345.556
346.256
347.212
347.865
348.497
349.09
349.545
349.719
349.685
349.806
349.592
349.2
348.633
348.107
347.155
346.2
345.555
344.428
343.255
342.308
338.63
339.176
339.958
340.53
341.051
341.534
341.949
342.099
342.054
342.228
341.948
341.695
341.168
340.684
339.951
339.075
338.61
337.643
336.637
335.826
331.684
332.116
332.734
333.219
333.622
333.97
334.344
334.458
334.423
334.537
334.337
334.097
333.674
333.307
332.724
331.963
331.64
330.876
329.995
329.315
324.678
325.009
325.461
325.866
326.181
326.401
326.73
326.833
326.785
326.887
326.726
326.48
326.201
325.933
325.464
324.896
324.649
324.049
323.341
322.778
317.661
317.871
318.186
318.539
318.711
318.864
319.099
319.174
319.203
319.197
319.124
318.899
318.715
318.586
318.202
317.774
317.659
317.209
316.671
316.269
310.623
310.751
310.889
311.136
311.242
311.32
311.461
311.532
311.542
311.507
311.5
311.312
311.263
311.199
310.949
310.696
310.64
310.328
310.006
309.78
303.537
303.595
303.623
303.75
303.784
303.802
303.851
303.855
303.867
303.855
303.847
303.796
303.789
303.74
303.694
303.601
303.575
303.459
303.36
303.291
353.79
354.642
355.88
356.695
357.623
358.152
358.653
358.888
358.885
358.908
358.595
358.084
357.602
356.923
355.912
354.859
353.824
352.547
351.142
349.879
346.699
347.442
348.437
349.194
349.994
350.438
350.887
351.063
351.104
351.043
350.795
350.363
349.935
349.393
348.516
347.597
346.678
345.562
344.349
343.268
339.545
340.192
340.975
341.668
342.37
342.701
343.081
343.221
343.262
343.152
343.048
342.606
342.284
341.815
341.116
340.304
339.541
338.609
337.586
336.694
332.398
332.958
333.533
334.11
334.692
334.963
335.245
335.372
335.416
335.292
335.269
334.862
334.606
334.172
333.67
333.012
332.382
331.632
330.81
330.049
325.208
325.645
326.074
326.541
327.006
327.215
327.456
327.494
327.555
327.463
327.474
327.13
326.939
326.595
326.199
325.689
325.213
324.668
323.996
323.398
318.039
318.315
318.6
318.951
319.319
319.45
319.652
319.626
319.724
319.632
319.649
319.388
319.265
319.007
318.698
318.387
318.044
317.688
317.161
316.729
310.862
311.019
311.159
311.369
311.625
311.725
311.799
311.801
311.852
311.796
311.799
311.67
311.569
311.399
311.234
311.033
310.869
310.669
310.3
310.062
303.648
303.712
303.74
303.796
303.893
303.948
303.959
303.97
303.967
303.945
303.967
303.901
303.878
303.818
303.77
303.689
303.649
303.577
303.456
303.37
355.028
356.039
357.019
357.922
359.059
359.467
360.12
360.367
360.58
360.244
360.154
359.668
358.876
358.381
357.523
356.311
355.199
353.777
352.462
351.161
347.723
348.599
349.442
350.245
351.221
351.59
352.151
352.378
352.516
352.255
352.215
351.752
351.008
350.613
349.92
348.806
347.856
346.673
345.502
344.408
340.409
341.157
341.849
342.542
343.374
343.729
344.141
344.332
344.437
344.247
344.246
343.804
343.158
342.796
342.324
341.305
340.502
339.52
338.546
337.631
333.071
333.693
334.222
334.827
335.528
335.791
336.146
336.292
336.359
336.174
336.222
335.849
335.334
335.029
334.648
333.855
333.177
332.389
331.578
330.878
325.781
326.228
326.592
327.135
327.708
327.891
328.147
328.229
328.272
328.164
328.136
327.904
327.502
327.258
326.958
326.373
325.844
325.225
324.568
324.067
318.475
318.785
318.961
319.431
319.827
319.954
320.12
320.132
320.221
320.135
320.086
319.975
319.663
319.493
319.273
318.833
318.509
318.057
317.525
317.211
311.105
311.308
311.372
311.715
311.931
312.002
312.104
312.101
312.147
312.121
312.084
312.013
311.822
311.71
311.589
311.308
311.146
310.847
310.549
310.356
303.726
303.806
303.825
303.926
303.994
304.039
304.056
304.051
304.066
304.069
304.066
304.022
303.957
303.925
303.894
303.797
303.731
303.636
303.549
303.466
356.409
357.223
358.315
359.295
360.304
360.882
361.509
362.085
361.97
361.799
361.558
361.197
360.417
359.792
359.011
357.777
356.601
355.125
353.834
352.45
348.971
349.629
350.533
351.392
352.335
352.795
353.33
353.887
353.781
353.587
353.373
353.103
352.342
351.802
351.177
350.1
349.062
347.804
346.717
345.517
341.5
342.029
342.752
343.518
344.357
344.673
345.173
345.623
345.552
345.355
345.191
344.993
344.3
343.765
343.349
342.427
341.514
340.486
339.584
338.545
334.016
334.437
335.035
335.619
336.328
336.594
336.974
337.312
337.273
337.104
336.986
336.879
336.295
335.831
335.5
334.707
333.96
333.167
332.392
331.61
326.535
326.853
327.269
327.774
328.306
328.487
328.724
329.014
329.034
328.901
328.779
328.703
328.228
327.926
327.657
326.991
326.437
325.822
325.205
324.613
319.012
319.186
319.513
319.885
320.234
320.369
320.53
320.713
320.791
320.644
320.561
320.517
320.177
319.958
319.794
319.282
318.95
318.478
318
317.576
311.45
311.511
311.717
311.957
312.186
312.27
312.312
312.457
312.52
312.406
312.35
312.364
312.121
311.988
311.899
311.569
311.39
311.114
310.82
310.547
303.847
303.859
303.952
304.007
304.081
304.112
304.124
304.198
304.198
304.186
304.125
304.149
304.064
304.024
304.011
303.891
303.814
303.724
303.625
303.535
357.417
358.674
359.574
360.607
361.569
362.226
362.817
363.207
363.106
363.211
363.028
362.459
361.882
361.241
360.125
359.013
357.988
356.571
355.013
353.767
349.861
350.909
351.654
352.557
353.411
353.986
354.513
354.809
354.736
354.825
354.659
354.157
353.628
353.096
352.131
351.162
350.299
349.022
347.724
346.643
342.243
343.073
343.731
344.504
345.275
345.706
346.168
346.367
346.35
346.366
346.285
345.834
345.388
344.939
344.145
343.345
342.519
341.48
340.397
339.478
334.592
335.258
335.826
336.466
337.112
337.397
337.793
337.944
337.941
337.958
337.886
337.547
337.13
336.787
336.157
335.478
334.759
333.955
333.049
332.301
326.946
327.443
327.873
328.412
328.909
329.108
329.411
329.514
329.584
329.543
329.474
329.253
328.901
328.628
328.139
327.561
327.028
326.416
325.725
325.151
319.307
319.639
319.948
320.335
320.717
320.826
321.003
321.083
321.161
321.117
321.068
320.921
320.639
320.436
320.143
319.648
319.306
318.882
318.374
317.941
311.606
311.805
312.025
312.246
312.48
312.51
312.609
312.647
312.756
312.674
312.656
312.585
312.412
312.234
312.087
311.773
311.603
311.348
311.06
310.753
303.883
303.953
304.051
304.112
304.168
304.194
304.212
304.227
304.283
304.231
304.224
304.226
304.147
304.113
304.038
303.931
303.868
303.806
303.71
303.583
358.607
359.771
360.884
361.806
362.742
363.378
364.154
364.298
364.598
364.513
364.184
363.672
363.213
362.289
361.337
360.082
358.937
357.635
356.176
354.891
350.853
351.847
352.793
353.626
354.442
355.022
355.62
355.777
356.016
355.933
355.647
355.229
354.802
354.007
353.194
352.061
351.121
349.972
348.732
347.634
343.066
343.9
344.709
345.39
346.111
346.608
347.063
347.241
347.42
347.377
347.106
346.738
346.399
345.689
345.001
344.07
343.292
342.3
341.257
340.377
335.237
335.918
336.617
337.143
337.753
338.194
338.549
338.688
338.833
338.75
338.582
338.206
337.975
337.363
336.844
336.057
335.426
334.662
333.773
333.118
327.38
327.948
328.514
328.927
329.387
329.798
330.036
330.136
330.267
330.145
330.056
329.702
329.543
329.032
328.68
328.028
327.56
326.954
326.301
325.783
319.584
319.972
320.43
320.67
321.005
321.356
321.511
321.565
321.631
321.559
321.555
321.248
321.11
320.739
320.491
320.046
319.72
319.263
318.824
318.412
311.795
312.021
312.295
312.403
312.653
312.847
312.922
312.979
312.98
312.955
313.001
312.817
312.657
312.444
312.308
312.044
311.874
311.606
311.342
311.048
303.939
304.013
304.135
304.165
304.254
304.309
304.35
304.353
304.369
304.335
304.359
304.3
304.248
304.161
304.133
304.037
303.979
303.894
303.826
303.691
359.718
360.604
361.985
362.994
364.157
364.792
365.541
365.654
365.734
365.649
365.419
364.921
364.312
363.504
362.589
361.191
360.024
358.72
357.304
355.945
351.833
352.548
353.765
354.622
355.661
356.199
356.838
356.937
356.987
356.89
356.686
356.248
355.811
355.03
354.262
353.08
352.026
350.89
349.664
348.531
343.948
344.49
345.48
346.243
347.131
347.572
348.159
348.183
348.271
348.138
347.963
347.605
347.28
346.586
345.902
344.917
344.008
343.048
342.037
341.115
336.013
336.39
337.201
337.859
338.559
338.931
339.411
339.442
339.502
339.416
339.267
338.972
338.765
338.118
337.553
336.791
336.001
335.207
334.409
333.628
328.066
328.316
328.959
329.488
330.02
330.276
330.652
330.698
330.715
330.636
330.557
330.315
330.151
329.654
329.204
328.604
328.026
327.362
326.791
326.156
320.083
320.256
320.715
321.086
321.467
321.599
321.885
321.913
321.941
321.886
321.879
321.708
321.554
321.197
320.863
320.447
320.036
319.544
319.149
318.706
312.076
312.193
312.466
312.679
312.948
312.957
313.105
313.144
313.137
313.119
313.136
313.071
312.98
312.736
312.525
312.257
312.06
311.736
311.494
311.243
304.063
304.099
304.184
304.24
304.345
304.362
304.379
304.38
304.413
304.409
304.415
304.373
304.369
304.264
304.224
304.102
304.028
303.921
303.848
303.747
360.655
361.56
362.981
364.036
364.944
365.737
366.428
366.704
366.825
366.839
366.587
366.036
365.287
364.542
363.569
362.386
360.893
359.439
358.105
356.782
352.642
353.407
354.612
355.517
356.305
356.997
357.639
357.809
357.95
357.988
357.761
357.252
356.585
355.956
355.129
354.143
352.823
351.515
350.427
349.254
344.619
345.229
346.203
346.981
347.687
348.268
348.804
348.912
349.01
349.133
348.924
348.474
347.893
347.347
346.647
345.815
344.742
343.634
342.711
341.711
336.585
337.001
337.793
338.462
339.043
339.515
339.931
340.001
340.112
340.213
340.072
339.688
339.236
338.783
338.18
337.44
336.65
335.713
334.967
334.112
328.507
328.74
329.4
329.982
330.388
330.736
331.07
331.128
331.178
331.315
331.184
330.88
330.553
330.163
329.652
329.131
328.539
327.755
327.267
326.503
320.391
320.522
321.025
321.449
321.742
321.955
322.2
322.254
322.278
322.4
322.304
322.084
321.837
321.586
321.182
320.793
320.419
319.8
319.519
318.94
312.261
312.308
312.623
312.89
313.078
313.185
313.331
313.341
313.358
313.454
313.39
313.29
313.095
312.978
312.729
312.511
312.284
311.88
311.702
311.393
304.093
304.126
304.232
304.331
304.369
304.428
304.492
304.462
304.469
304.523
304.478
304.464
304.368
304.358
304.246
304.201
304.115
303.985
303.913
303.818
361.433
362.364
363.801
364.913
365.889
366.447
367.349
367.638
367.708
367.727
367.489
366.793
366.267
365.575
364.439
363.221
361.897
360.437
359.087
357.43
353.32
354.123
355.334
356.256
357.097
357.561
358.418
358.621
358.745
358.746
358.533
357.923
357.466
356.848
355.891
354.848
353.658
352.374
351.226
349.822
345.177
345.861
346.882
347.633
348.349
348.71
349.456
349.591
349.75
349.778
349.513
349.015
348.633
348.074
347.337
346.427
345.44
344.318
343.353
342.182
336.976
337.573
338.366
338.961
339.574
339.855
340.485
340.549
340.733
340.751
340.482
340.096
339.783
339.345
338.723
337.986
337.207
336.248
335.448
334.561
328.721
329.227
329.875
330.305
330.827
331.01
331.523
331.571
331.697
331.727
331.508
331.196
330.921
330.584
330.101
329.532
328.969
328.181
327.586
326.856
320.51
320.912
321.362
321.693
322.072
322.17
322.52
322.578
322.667
322.688
322.514
322.271
322.113
321.852
321.475
321.08
320.706
320.091
319.716
319.16
312.316
312.573
312.827
313.055
313.289
313.315
313.522
313.585
313.625
313.624
313.541
313.355
313.281
313.146
312.872
312.651
312.429
312.04
311.845
311.486
304.12
304.212
304.298
304.38
304.458
304.465
304.531
304.561
304.597
304.564
304.541
304.482
304.443
304.423
304.314
304.238
304.18
304.024
303.959
303.853
361.884
363.192
364.616
365.803
366.708
367.404
368.186
368.323
368.689
368.635
368.24
367.686
367.065
366.385
365.711
364.295
362.671
361.351
359.911
358.305
353.738
354.827
356.034
357.077
357.824
358.443
359.131
359.208
359.558
359.521
359.191
358.697
358.102
357.529
356.983
355.742
354.27
353.161
351.944
350.555
345.509
346.442
347.437
348.319
348.952
349.475
350.067
350.151
350.461
350.407
350.128
349.702
349.182
348.69
348.242
347.182
345.944
344.932
343.952
342.823
337.248
338.047
338.809
339.57
340.034
340.493
340.976
340.986
341.314
341.258
341.054
340.697
340.311
339.837
339.503
338.644
337.627
336.75
335.963
335.13
329.019
329.638
330.212
330.787
331.111
331.514
331.855
331.859
332.174
332.116
331.932
331.709
331.392
330.974
330.705
330.089
329.301
328.595
327.946
327.385
320.758
321.192
321.61
322.008
322.222
322.534
322.765
322.779
322.979
322.966
322.85
322.678
322.419
322.099
321.914
321.505
320.946
320.436
319.988
319.635
312.457
312.725
313.017
313.237
313.359
313.526
313.679
313.697
313.787
313.805
313.717
313.635
313.485
313.231
313.126
312.948
312.575
312.325
312.019
311.804
304.169
304.275
304.367
304.434
304.478
304.54
304.589
304.602
304.614
304.625
304.594
304.574
304.522
304.403
304.387
304.339
304.205
304.135
304.041
303.953
362.594
363.834
365.19
366.542
367.489
368.017
368.699
368.976
369.413
369.459
368.931
368.571
367.921
366.827
366.022
364.901
363.438
361.949
360.484
359.028
354.307
355.347
356.523
357.721
358.543
358.99
359.551
359.784
360.177
360.231
359.75
359.413
358.894
357.907
357.283
356.257
355.017
353.742
352.449
351.205
345.997
346.856
347.857
348.876
349.569
349.919
350.41
350.599
350.962
350.979
350.626
350.278
349.814
349.031
348.525
347.603
346.583
345.526
344.419
343.373
337.67
338.389
339.179
340.032
340.579
340.895
341.255
341.411
341.695
341.753
341.497
341.129
340.739
340.116
339.732
338.95
338.161
337.291
336.341
335.531
329.354
329.907
330.461
331.186
331.56
331.84
332.091
332.197
332.439
332.512
332.295
331.971
331.683
331.232
330.896
330.304
329.732
329.059
328.27
327.699
320.982
321.412
321.774
322.327
322.547
322.755
322.942
323.005
323.192
323.195
323.082
322.846
322.633
322.307
322.104
321.663
321.227
320.806
320.173
319.816
312.596
312.916
313.118
313.421
313.56
313.665
313.755
313.823
313.932
313.947
313.852
313.712
313.618
313.424
313.296
312.995
312.719
312.518
312.083
311.933
304.209
304.338
304.393
304.507
304.568
304.584
304.62
304.647
304.655
304.675
304.649
304.604
304.555
304.505
304.45
304.365
304.264
304.22
304.028
304.014
363.151
364.395
365.734
367.077
367.891
368.543
369.197
369.493
370.06
370.001
369.579
369.124
368.728
367.76
366.581
365.445
364.193
362.782
360.934
359.815
354.815
355.827
356.983
358.173
358.834
359.415
359.991
360.226
360.765
360.714
360.356
359.965
359.545
358.708
357.707
356.699
355.717
354.45
352.828
351.89
346.43
347.234
348.258
349.251
349.823
350.294
350.772
350.973
351.441
351.398
351.124
350.783
350.371
349.64
348.832
347.963
347.206
346.16
344.76
343.919
338.01
338.671
339.497
340.339
340.838
341.175
341.545
341.719
342.115
342.087
341.871
341.576
341.178
340.609
339.94
339.223
338.676
337.823
336.614
335.965
329.563
330.099
330.76
331.362
331.817
332.033
332.295
332.454
332.735
332.747
332.605
332.391
331.998
331.586
331.036
330.536
330.102
329.447
328.491
327.956
321.17
321.52
322.006
322.414
322.762
322.898
323.077
323.235
323.382
323.426
323.323
323.153
322.868
322.61
322.138
321.869
321.521
321.063
320.353
319.94
312.687
312.919
313.239
313.448
313.656
313.777
313.87
313.957
313.995
314.069
314.04
313.923
313.733
313.618
313.287
313.144
312.914
312.65
312.237
311.974
304.247
304.34
304.432
304.502
304.579
304.606
304.676
304.671
304.682
304.714
304.709
304.68
304.615
304.563
304.444
304.413
304.336
304.246
304.101
304.014
363.749
364.855
366.16
367.354
368.298
369.06
369.78
370.136
370.562
370.382
370.085
369.497
369.04
368.289
367.131
366.004
364.786
363.279
361.534
360.231
355.311
356.242
357.317
358.4
359.214
359.877
360.527
360.787
361.179
361.015
360.741
360.24
359.858
359.181
358.157
357.209
356.178
354.875
353.35
352.271
346.858
347.591
348.515
349.43
350.148
350.698
351.217
351.362
351.795
351.665
351.384
350.981
350.676
350.098
349.218
348.442
347.539
346.466
345.144
344.246
338.385
338.974
339.721
340.496
341.053
341.483
341.882
341.989
342.392
342.321
342.03
341.69
341.489
341.022
340.273
339.671
338.928
338.045
336.981
336.217
329.896
330.352
330.88
331.483
331.928
332.256
332.591
332.649
333.001
332.973
332.681
332.387
332.288
331.923
331.336
330.859
330.326
329.637
328.805
328.178
321.407
321.704
322.056
322.513
322.786
323.021
323.277
323.321
323.598
323.559
323.366
323.131
323.096
322.82
322.411
322.054
321.696
321.195
320.583
320.129
312.879
313.036
313.267
313.51
313.658
313.852
313.97
313.988
314.177
314.092
314.062
313.874
313.851
313.708
313.459
313.25
313.053
312.73
312.35
312.072
304.344
304.384
304.465
304.526
304.568
304.633
304.681
304.669
304.741
304.712
304.704
304.652
304.635
304.593
304.503
304.457
304.369
304.274
304.126
304.048
364.125
365.225
366.573
367.747
368.76
369.587
370.356
370.47
370.972
370.776
370.559
369.768
369.486
368.709
367.53
366.373
365.09
363.729
361.885
360.522
355.694
356.533
357.695
358.719
359.683
360.383
360.988
361.042
361.528
361.344
361.128
360.493
360.251
359.588
358.562
357.509
356.432
355.281
353.684
352.502
347.154
347.796
348.841
349.69
350.502
351.121
351.637
351.674
352.088
351.906
351.702
351.24
351.001
350.403
349.523
348.651
347.778
346.833
345.479
344.434
338.633
339.09
339.94
340.637
341.316
341.89
342.281
342.315
342.648
342.481
342.289
341.944
341.718
341.201
340.517
339.759
339.105
338.347
337.274
336.374
330.076
330.406
331.071
331.625
332.172
332.652
332.883
332.924
333.2
333.039
332.893
332.629
332.444
332.071
331.517
330.937
330.404
329.83
329.048
328.241
321.52
321.705
322.191
322.639
323.028
323.357
323.495
323.504
323.72
323.617
323.503
323.328
323.135
322.951
322.545
322.117
321.711
321.306
320.786
320.146
312.937
313.05
313.312
313.635
313.852
314.03
314.108
314.113
314.228
314.239
314.113
314.009
313.906
313.799
313.558
313.275
313.031
312.812
312.483
312.104
304.343
304.384
304.453
304.579
304.637
304.711
304.738
304.734
304.77
304.775
304.708
304.705
304.662
304.639
304.546
304.446
304.383
304.302
304.196
304.056
364.218
365.184
366.88
368.145
368.739
369.92
370.631
370.796
370.971
371.051
370.707
370.352
369.787
368.905
367.802
366.686
365.328
363.898
362.045
360.617
355.725
356.478
358.001
359.061
359.623
360.633
361.223
361.348
361.49
361.599
361.312
360.964
360.503
359.699
358.711
357.839
356.598
355.394
353.785
352.612
347.196
347.801
349.13
350.01
350.448
351.287
351.85
351.946
352.006
352.165
351.913
351.576
351.202
350.536
349.676
348.99
347.899
346.867
345.55
344.56
338.667
339.205
340.23
340.956
341.34
342.008
342.479
342.517
342.546
342.7
342.514
342.135
341.88
341.329
340.637
340.082
339.162
338.34
337.326
336.467
330.106
330.55
331.312
331.927
332.187
332.729
333.061
333.102
333.113
333.271
333.127
332.716
332.587
332.14
331.606
331.152
330.446
329.802
329.041
328.382
321.537
321.859
322.393
322.806
323.035
323.412
323.616
323.671
323.649
323.802
323.706
323.319
323.306
322.98
322.574
322.239
321.741
321.271
320.755
320.278
312.954
313.154
313.454
313.71
313.888
314.08
314.2
314.229
314.216
314.337
314.249
313.958
314.002
313.819
313.577
313.37
313.059
312.756
312.454
312.178
304.349
304.427
304.516
304.614
304.663
304.726
304.76
304.792
304.778
304.817
304.767
304.679
304.68
304.625
304.542
304.483
304.382
304.273
304.15
304.06
364.549
365.422
366.879
368.112
369.2
370.078
370.885
370.944
370.986
371.187
370.833
370.623
369.951
369.111
368.007
366.718
365.288
364.32
362.231
360.781
356.016
356.763
357.991
359.059
360.016
360.844
361.489
361.544
361.521
361.682
361.404
361.288
360.651
359.948
358.937
357.822
356.538
355.757
353.997
352.71
347.464
348.124
349.079
349.977
350.826
351.552
352.066
352.128
352.033
352.207
352.007
351.92
351.316
350.748
349.899
348.941
347.822
347.191
345.751
344.586
338.873
339.422
340.175
340.904
341.606
342.204
342.618
342.651
342.591
342.691
342.603
342.508
341.992
341.518
340.854
340.127
339.145
338.633
337.502
336.48
330.262
330.739
331.249
331.83
332.374
332.888
333.151
333.159
333.13
333.207
333.203
333.077
332.687
332.29
331.784
331.209
330.458
330.102
329.194
328.409
321.634
322
322.322
322.7
323.146
323.543
323.696
323.694
323.667
323.733
323.742
323.626
323.368
323.057
322.719
322.354
321.737
321.512
320.891
320.287
313.02
313.194
313.431
313.594
313.914
314.185
314.265
314.241
314.199
314.237
314.246
314.202
314.023
313.822
313.651
313.483
313.001
312.92
312.559
312.162
304.351
304.435
304.476
304.536
304.654
304.756
304.782
304.788
304.771
304.778
304.786
304.766
304.712
304.626
304.571
304.538
304.337
304.333
304.219
304.073
364.403
365.477
366.956
368.286
369.146
370.203
370.866
371.161
371.465
371.314
371.139
370.776
370.038
369.118
368.152
366.824
365.35
364.148
362.341
360.916
355.91
356.786
358.073
359.27
359.958
360.904
361.415
361.702
361.963
361.822
361.72
361.359
360.672
359.856
359.08
357.933
356.612
355.637
354.063
352.908
347.361
348.059
349.207
350.197
350.777
351.63
351.978
352.267
352.443
352.329
352.237
351.962
351.34
350.617
350.005
349.067
347.936
347.125
345.798
344.858
338.782
339.335
340.32
341.115
341.569
342.263
342.535
342.738
342.902
342.793
342.75
342.536
342.041
341.365
340.931
340.19
339.216
338.61
337.466
336.758
330.144
330.589
331.356
332.03
332.359
332.881
333.036
333.204
333.343
333.304
333.26
333.109
332.738
332.175
331.834
331.275
330.488
330.086
329.173
328.614
321.5
321.843
322.385
322.883
323.13
323.469
323.587
323.713
323.779
323.789
323.778
323.684
323.432
322.977
322.756
322.338
321.756
321.527
320.857
320.474
312.936
313.101
313.422
313.73
313.932
314.087
314.179
314.236
314.312
314.273
314.265
314.252
314.07
313.813
313.664
313.427
313.074
312.965
312.507
312.254
304.358
304.388
304.502
304.606
304.676
304.736
304.766
304.775
304.785
304.782
304.791
304.768
304.727
304.63
304.566
304.517
304.389
304.343
304.201
304.112
)
;

boundaryField
{
    hotSide
    {
        type            fixedGradient;
        gradient        nonuniform List<scalar> 
400
(
503.682
519.775
535.441
550.608
565.21
579.176
592.44
604.939
616.609
627.393
637.235
646.085
653.895
660.625
666.239
670.705
674
676.106
677.009
676.705
515.589
532.138
548.252
563.86
578.89
593.272
606.937
619.818
631.853
642.981
653.144
662.291
670.372
677.347
683.176
687.828
691.279
693.508
694.504
694.259
526.01
542.97
559.49
575.495
590.913
605.672
619.701
632.932
645.3
656.743
667.201
676.621
684.954
692.155
698.186
703.014
706.612
708.961
710.048
709.865
534.886
552.209
569.087
585.445
601.209
616.303
630.657
644.201
656.868
668.593
679.318
688.986
697.547
704.956
711.172
716.163
719.901
722.364
723.54
723.422
542.172
559.807
576.995
593.658
609.721
625.108
639.745
653.562
666.491
678.465
689.425
699.313
708.078
715.673
722.058
727.197
731.063
733.635
734.897
734.843
547.837
565.733
583.179
600.098
616.411
632.044
646.921
660.969
674.121
686.309
697.471
707.549
716.491
724.25
730.783
736.055
740.038
742.709
744.054
744.064
551.865
569.967
587.618
604.74
621.254
637.085
652.156
666.393
679.727
692.09
703.42
713.657
722.748
730.645
737.305
742.693
746.779
749.541
750.962
751.036
554.25
572.502
590.303
607.576
624.241
640.22
655.437
669.818
683.292
695.791
707.252
717.615
726.825
734.835
741.6
747.086
751.26
754.102
755.593
755.727
555
573.344
591.241
608.61
625.372
641.449
656.764
671.243
684.814
697.409
708.964
719.418
728.717
736.812
743.659
749.222
753.469
756.379
757.933
758.124
554.129
572.509
590.445
607.856
624.662
640.786
656.15
670.68
684.304
696.954
708.563
719.074
728.43
736.582
743.487
749.106
753.41
756.375
757.984
758.228
551.665
570.024
587.942
605.339
622.137
638.256
653.62
668.154
681.786
694.448
706.074
716.606
725.986
734.167
741.104
746.759
751.102
754.109
755.763
756.055
547.64
565.921
583.766
601.095
617.831
633.894
649.208
663.699
677.295
689.927
701.531
712.047
721.419
729.599
736.543
742.212
746.576
749.612
751.301
751.636
542.098
560.244
577.96
595.168
611.788
627.745
642.96
657.361
670.875
683.436
694.978
705.443
714.775
722.925
729.849
735.51
739.878
742.927
744.642
745.012
535.085
553.041
570.575
587.607
604.062
619.861
634.929
649.193
662.583
675.031
686.474
696.852
706.11
714.201
721.081
726.712
731.064
734.113
735.842
736.242
526.658
544.37
561.668
578.474
594.711
610.304
625.178
639.261
652.483
664.778
676.083
686.339
695.493
703.496
710.306
715.885
720.204
723.238
724.971
725.394
516.877
534.294
551.305
567.833
583.805
599.144
613.779
627.637
640.65
652.752
663.883
673.984
683.002
690.889
697.604
703.11
707.377
710.383
712.109
712.548
505.809
522.881
539.556
555.76
571.418
586.459
600.81
614.401
627.165
639.038
649.959
659.871
668.724
676.469
683.065
688.478
692.677
695.639
697.349
697.796
493.528
510.207
526.5
542.333
557.635
572.334
586.359
599.644
612.121
623.728
634.406
644.099
652.758
660.335
666.79
672.089
676.204
679.11
680.793
681.243
480.111
496.354
512.221
527.641
542.544
556.861
570.522
583.463
595.617
606.925
617.329
626.774
635.212
642.597
648.89
654.058
658.072
660.91
662.557
663.003
465.645
481.41
496.811
511.778
526.244
540.141
553.402
565.964
577.763
588.741
598.841
608.011
616.203
623.374
629.486
634.505
638.404
641.162
642.765
643.202
)
;
    }
    coldSide
    {
        type            mixed;
        refValue        uniform 300;
        refGradient     uniform 0;
        valueFraction   uniform 0.991591;
        source          uniform 0;
        value           nonuniform List<scalar> 
400
(
300.028
300.029
300.029
300.03
300.031
300.031
300.032
300.033
300.033
300.034
300.034
300.035
300.035
300.035
300.036
300.037
300.037
300.037
300.037
300.037
300.028
300.029
300.029
300.03
300.031
300.032
300.032
300.033
300.034
300.034
300.035
300.035
300.036
300.036
300.036
300.037
300.037
300.037
300.037