/*--------------------------------*- C++ -*----------------------------------*\
| =========                 |                                                 |
| \\      /  F ield         | OpenFOAM: The Open Source CFD Toolbox           |
|  \\    /   O peration     | Version:  2212                                  |
|   \\  /    A nd           | Website:  www.openfoam.com                      |
|    \\/     M anipulation  |                                                 |
\*---------------------------------------------------------------------------*/
FoamFile
{
    version     2.0;
    format      ascii;
    arch        "LSB;label=32;scalar=64";
    class       volScalarField;
    location    "0";
    object      stateMean;
}
// * * * * * * * * * * * * * * * * * * * * * * * * * * * * * * * * * * * * * //

dimensions      [0 0 0 1 0 0 0];

internalField   nonuniform List<scalar> 
3200
(
327.635
328.259
328.851
329.492
330.008
330.425
330.768
331.1
331.36
331.425
331.464
331.429
331.32
331.078
330.838
330.532
330.01
329.552
328.89
328.446
323.828
324.375
324.804
325.391
325.845
326.268
326.559
326.777
326.994
327.087
327.084
327.044
326.979
326.724
326.515
326.253
325.835
325.396
324.879
324.493
320.135
320.5
321.004
321.386
321.783
322.017
322.347
322.542
322.693
322.776
322.865
322.82
322.676
322.481
322.321
322.111
321.737
321.409
320.963
320.633
316.392
316.696
317.005
317.457
317.743
317.96
318.181
318.39
318.423
318.552
318.512
318.53
318.445
318.352
318.219
317.949
317.746
317.464
317.045
316.727
312.707
312.94
313.182
313.516
313.746
313.961
314.049
314.208
314.293
314.362
314.369
314.406
314.34
314.249
314.109
313.913
313.716
313.507
313.205
312.981
309.017
309.206
309.404
309.63
309.764
309.915
310.063
310.143
310.191
310.188
310.258
310.203
310.197
310.107
310.05
309.895
309.775
309.561
309.376
309.231
305.421
305.507
305.602
305.746
305.775
305.947
306.097
306.059
306.114
306.213
306.104
306.146
306.071
306.053
305.993
305.913
305.864
305.753
305.626
305.549
301.754
301.808
301.882
301.927
301.935
301.966
302.004
302.057
302.029
302.077
302.08
302.095
302.048
302.012
302.017
301.979
301.984
301.929
301.821
301.873
328.368
328.98
329.721
330.337
330.832
331.282
331.658
332.001
332.218
332.445
332.411
332.374
332.267
332.069
331.829
331.359
330.864
330.385
329.789
329.203
324.467
324.999
325.54
326.087
326.569
326.872
327.289
327.566
327.699
327.786
327.876
327.867
327.728
327.533
327.249
327.007
326.599
326.101
325.597
325.147
320.628
321.033
321.43
321.93
322.299
322.677
322.871
323.132
323.256
323.451
323.405
323.397
323.339
323.162
322.953
322.631
322.263
321.987
321.518
321.104
316.829
317.163
317.564
317.84
318.148
318.408
318.611
318.856
318.966
319.064
319.024
319.052
318.971
318.816
318.689
318.395
318.114
317.82
317.495
317.173
312.958
313.207
313.47
313.892
314.095
314.282
314.459
314.618
314.74
314.72
314.774
314.733
314.667
314.574
314.482
314.255
314.074
313.785
313.517
313.3
309.299
309.501
309.643
309.9
310.074
310.16
310.236
310.429
310.471
310.476
310.476
310.484
310.428
310.385
310.307
310.164
309.983
309.845
309.669
309.48
305.537
305.693
305.804
305.869
305.956
306.063
306.18
306.196
306.26
306.288
306.279
306.314
306.232
306.228
306.139
306.046
305.993
305.847
305.749
305.716
301.864
301.863
301.858
301.963
302.088
302.046
302.104
302.026
302.129
302.137
302.117
302.104
302.077
302.132
302.121
302.072
302.046
301.965
301.946
301.912
329.448
330.06
330.721
331.408
331.955
332.445
332.842
333.179
333.4
333.698
333.666
333.634
333.541
333.309
332.937
332.56
332.133
331.55
330.955
330.397
325.304
325.936
326.466
326.962
327.539
327.948
328.248
328.479
328.725
328.847
328.919
328.869
328.736
328.547
328.351
328.021
327.588
327.046
326.586
326.068
321.41
321.711
322.25
322.679
323.058
323.429
323.797
324.014
324.152
324.238
324.245
324.204
324.176
324.074
323.786
323.584
323.147
322.749
322.337
321.911
317.484
317.667
318.081
318.47
318.817
319.081
319.379
319.521
319.663
319.778
319.759
319.695
319.62
319.54
319.245
319.146
318.878
318.508
318.152
317.74
313.408
313.754
314.004
314.218
314.56
314.799
314.955
315.078
315.119
315.215
315.272
315.307
315.193
315.109
314.934
314.78
314.498
314.247
313.991
313.728
309.613
309.756
309.951
310.202
310.398
310.522
310.719
310.705
310.797
310.868
310.838
310.847
310.805
310.725
310.685
310.542
310.389
310.24
309.98
309.875
305.818
305.869
306.058
306.118
306.219
306.241
306.362
306.44
306.566
306.467
306.562
306.498
306.483
306.477
306.476
306.289
306.214
306.014
306.024
305.885
301.949
301.937
301.97
302.047
302.102
302.124
302.106
302.14
302.228
302.165
302.164
302.168
302.14
302.11
302.088
302.109
302.012
302.069
302.004
301.992
330.517
331.252
331.958
332.647
333.204
333.682
334.135
334.458
334.772
334.905
334.924
334.897
334.865
334.601
334.308
333.874
333.403
332.788
332.201
331.629
326.302
326.85
327.455
328.064
328.585
329.028
329.35
329.638
329.823
329.985
329.976
329.996
329.879
329.805
329.478
329.038
328.689
328.25
327.601
327.228
322.18
322.538
323.084
323.592
324.051
324.433
324.632
324.849
325.058
325.15
325.269
325.209
325.149
324.975
324.714
324.421
323.998
323.638
323.194
322.756
318.054
318.32
318.789
319.157
319.516
319.872
320.027
320.276
320.386
320.447
320.464
320.442
320.42
320.268
320.091
319.889
319.587
319.207
318.9
318.553
313.96
314.286
314.519
314.826
315.074
315.387
315.522
315.636
315.819
315.826
315.849
315.815
315.804
315.676
315.54
315.36
315.16
314.902
314.588
314.346
309.922
310.115
310.383
310.618
310.765
310.911
311.011
311.186
311.191
311.223
311.319
311.287
311.25
311.141
311.068
310.925
310.818
310.596
310.369
310.181
305.913
306.065
306.229
306.401
306.423
306.517
306.616
306.688
306.787
306.748
306.818
306.756
306.655
306.674
306.668
306.558
306.484
306.317
306.144
306.131
301.998
302.112
302.031
302.15
302.222
302.152
302.216
302.162
302.178
302.264
302.284
302.255
302.22
302.255
302.174
302.126
302.167
302.148
302.073
302.065
331.653
332.369
333.073
333.836
334.416
335.011
335.394
335.769
336.078
336.242
336.315
336.226
336.197
335.896
335.601
335.205
334.715
334.117
333.364
332.805
327.22
327.855
328.473
329.076
329.611
330.105
330.447
330.823
331.003
331.206
331.233
331.18
331.048
330.907
330.59
330.205
329.79
329.281
328.742
328.23
322.924
323.392
323.944
324.501
324.851
325.23
325.647
325.878
326.079
326.166
326.176
326.15
326.12
325.907
325.65
325.37
325.016
324.589
324.053
323.69
318.695
318.999
319.488
319.911
320.268
320.542
320.806
321.038
321.129
321.23
321.372
321.305
321.179
321.125
320.905
320.696
320.387
320.028
319.491
319.221
314.547
314.818
315.058
315.412
315.675
315.88
316.085
316.333
316.4
316.446
316.505
316.446
316.379
316.3
316.126
315.922
315.619
315.394
315.181
314.854
310.317
310.493
310.675
310.984
311.186
311.395
311.496
311.591
311.674
311.689
311.722
311.755
311.661
311.667
311.529
311.351
311.157
310.956
310.8
310.575
306.18
306.287
306.428
306.667
306.679
306.839
306.944
306.898
307.066
306.985
307.106
307.01
307.026
306.97
306.934
306.813
306.768
306.553
306.464
306.326
302.138
302.158
302.176
302.161
302.235
302.282
302.3
302.256
302.352
302.333
302.384
302.323
302.349
302.298
302.308
302.276
302.23
302.253
302.22
302.125
332.763
333.541
334.286
334.969
335.701
336.197
336.692
337.039
337.426
337.488
337.696
337.667
337.482
337.246
336.957
336.534
335.955
335.388
334.666
334.058
328.2
328.758
329.514
330.139
330.622
331.154
331.531
331.962
332.086
332.274
332.37
332.27
332.246
332.067
331.732
331.359
330.936
330.375
329.849
329.241
323.713
324.192
324.756
325.246
325.796
326.176
326.5
326.773
327.032
327.073
327.149
327.187
327.043
326.872
326.674
326.334
325.936
325.536
324.999
324.569
319.272
319.687
320.151
320.629
320.959
321.302
321.606
321.826
321.941
322.067
322.187
322.055
322.037
321.836
321.682
321.415
321.099
320.684
320.352
319.9
314.961
315.234
315.525
315.915
316.266
316.528
316.685
316.797
316.917
317.12
317.038
317.125
317.035
316.894
316.678
316.582
316.3
316.069
315.685
315.417
310.67
310.857
311.133
311.355
311.531
311.74
311.883
312.056
312.079
312.138
312.162
312.192
312.087
312.016
311.932
311.807
311.584
311.401
311.17
311.034
306.469
306.553
306.725
306.734
306.948
307.065
307.048
307.101
307.235
307.278
307.263
307.281
307.252
307.281
307.165
307.067
306.971
306.8
306.719
306.528
302.083
302.221
302.256
302.252
302.286
302.352
302.352
302.4
302.416
302.399
302.411
302.442
302.444
302.329
302.379
302.42
302.358
302.257
302.299
302.295
333.81
334.574
335.352
336.144
336.818
337.468
337.947
338.419
338.692
338.826
338.973
338.936
338.789
338.576
338.214
337.824
337.222
336.622
335.866
335.211
329.221
329.744
330.512
331.156
331.673
332.21
332.591
332.958
333.275
333.385
333.468
333.46
333.319
333.124
332.915
332.466
332.017
331.368
330.811
330.211
324.525
324.995
325.624
326.165
326.695
327.1
327.393
327.749
327.94
328.078
328.108
328.09
327.946
327.819
327.585
327.213
326.896
326.43
325.884
325.471
319.973
320.418
320.825
321.288
321.711
322.003
322.349
322.513
322.734
322.791
322.862
322.842
322.769
322.628
322.416
322.156
321.896
321.382
321.053
320.622
315.497
315.771
316.165
316.493
316.839
317.09
317.235
317.398
317.616
317.635
317.676
317.65
317.526
317.544
317.362
317.084
316.915
316.676
316.303
316.057
311.055
311.189
311.534
311.782
311.919
312.176
312.339
312.443
312.467
312.612
312.515
312.541
312.594
312.433
312.357
312.184
311.989
311.806
311.554
311.442
306.673
306.728
306.85
306.996
307.209
307.29
307.341
307.429
307.509
307.585
307.586
307.543
307.488
307.516
307.404
307.331
307.218
306.993
306.988
306.812
302.169
302.25
302.24
302.277
302.458
302.417
302.493
302.537
302.508
302.529
302.485
302.483
302.546
302.462
302.486
302.444
302.427
302.441
302.349
302.304
334.839
335.606
336.487
337.341
338.045
338.689
339.209
339.585
339.983
340.057
340.22
340.138
340.066
339.827
339.524
338.946
338.493
337.822
337.026
336.323
330.055
330.761
331.433
332.166
332.662
333.195
333.688
334.02
334.303
334.479
334.518
334.552
334.431
334.168
333.939
333.609
332.991
332.513
331.857
331.322
325.259
325.763
326.367
326.961
327.555
327.958
328.335
328.64
328.829
328.956
329.068
329.047
328.918
328.727
328.508
328.176
327.697
327.178
326.727
326.303
320.544
320.999
321.48
321.884
322.398
322.574
323.004
323.273
323.404
323.602
323.617
323.624
323.558
323.304
323.182
322.847
322.584
322.214
321.708
321.423
315.899
316.238
316.6
317.005
317.331
317.563
317.838
317.992
318.159
318.177
318.26
318.29
318.268
318.083
317.855
317.696
317.43
317.199
316.78
316.547
311.368
311.571
311.86
312.102
312.34
312.439
312.764
312.767
312.907
312.976
313.028
312.978
313.022
312.908
312.788
312.593
312.493
312.211
311.959
311.783
306.885
306.961
307.118
307.263
307.428
307.501
307.583
307.75
307.826
307.799
307.819
307.768
307.768
307.667
307.617
307.539
307.442
307.297
307.138
307.086
302.255
302.312
302.337
302.395
302.436
302.464
302.566
302.586
302.676
302.599
302.597
302.606
302.597
302.563
302.616
302.471
302.523
302.489
302.426
302.367
335.846
336.661
337.606
338.402
339.118
339.803
340.373
340.823
341.175
341.291
341.442
341.416
341.272
341.048
340.673
340.246
339.706
338.989
338.231
337.526
330.867
331.546
332.327
333.025
333.702
334.209
334.711
335.052
335.335
335.503
335.571
335.598
335.533
335.304
334.994
334.534
334.12
333.517
332.851
332.198
326.015
326.507
327.119
327.751
328.362
328.782
329.152
329.499
329.701
329.903
329.862
329.929
329.787
329.61
329.303
329.002
328.595
328.162
327.466
327.129
321.159
321.582
322.073
322.577
323.022
323.358
323.661
323.948
324.139
324.293
324.328
324.385
324.286
324.089
323.848
323.601
323.269
322.864
322.425
322.008
316.415
316.755
317.084
317.513
317.812
318.154
318.33
318.56
318.688
318.767
318.842
318.72
318.775
318.592
318.534
318.295
318.031
317.714
317.391
317.082
311.694
311.936
312.172
312.445
312.736
312.9
313.093
313.184
313.343
313.383
313.398
313.41
313.314
313.269
313.186
312.99
312.787
312.643
312.394
312.117
306.972
307.198
307.288
307.417
307.643
307.71
307.847
307.937
308.019
308.081
308.044
308.049
308.032
307.963
307.924
307.702
307.695
307.545
307.348
307.236
302.306
302.401
302.438
302.528
302.484
302.629
302.587
302.665
302.688
302.722
302.694
302.709
302.623
302.653
302.594
302.606
302.586
302.517
302.412
302.469
336.776
337.684
338.611
339.449
340.119
340.894
341.474
341.933
342.311
342.484
342.631
342.585
342.48
342.275
341.879
341.329
340.774
340.046
339.225
338.503
331.64
332.426
333.17
333.922
334.572
335.138
335.739
336.08
336.352
336.558
336.641
336.637
336.515
336.249
335.934
335.596
335.063
334.398
333.696
333.137
326.697
327.257
327.917
328.547
329.09
329.549
330.075
330.295
330.549
330.703
330.697
330.767
330.684
330.446
330.198
329.845
329.437
328.896
328.38
327.841
321.76
322.173
322.637
323.195
323.614
324.092
324.389
324.676
324.779
324.962
324.994
325.035
324.916
324.777
324.491
324.295
323.933
323.57
323.023
322.649
316.868
317.158
317.603
318.053
318.308
318.621
318.891
319.092
319.331
319.333
319.385
319.317
319.297
319.206
319.075
318.793
318.528
318.169
317.744
317.469
311.989
312.292
312.453
312.791
313.04
313.28
313.428
313.566
313.735
313.854
313.687
313.817
313.744
313.639
313.498
313.398
313.148
312.947
312.712
312.445
307.263
307.322
307.553
307.643
307.907
307.923
308.069
308.129
308.152
308.251
308.321
308.254
308.287
308.153
308.132
307.995
307.845
307.76
307.611
307.411
302.426
302.475
302.556
302.537
302.676
302.6
302.655
302.699
302.718
302.804
302.727
302.84
302.77
302.759
302.744
302.71
302.692
302.637
302.522
302.448
337.668
338.574
339.49
340.399
341.175
341.925
342.482
342.961
343.35
343.599
343.698
343.603
343.591
343.313
342.946
342.44
341.843
341.109
340.302
339.583
332.429
333.225
333.984
334.764
335.426
335.977
336.541
336.943
337.301
337.471
337.532
337.563
337.473
337.25
336.891
336.425
335.969
335.35
334.64
333.974
327.355
327.891
328.559
329.252
329.734
330.327
330.718
331.157
331.403
331.54
331.536
331.514
331.419
331.261
330.975
330.65
330.198
329.711
329.079
328.553
322.235
322.746
323.309
323.777
324.254
324.702
325.013
325.262
325.5
325.658
325.695
325.721
325.61
325.445
325.222
324.9
324.582
324.127
323.616
323.299
317.224
317.61
318.033
318.423
318.837
319.168
319.324
319.534
319.719
319.83
319.872
319.875
319.807
319.586
319.512
319.255
318.994
318.668
318.288
318.013
312.26
312.469
312.878
313.13
313.379
313.59
313.805
313.884
314.061
314.071
314.11
314.122
314.057
314.028
313.889
313.735
313.571
313.26
313.053
312.84
307.384
307.58
307.721
307.916
307.986
308.127
308.229
308.387
308.434
308.507
308.489
308.456
308.441
308.361
308.345
308.205
308.105
308.006
307.813
307.718
302.486
302.498
302.59
302.657
302.639
302.668
302.793
302.811
302.78
302.788
302.88
302.826
302.859
302.813
302.81
302.617
302.699
302.676
302.583
302.562
338.577
339.413
340.388
341.337
342.176
342.918
343.405
343.998
344.323
344.581
344.722
344.715
344.545
344.324
343.992
343.465
342.814
342.03
341.195
340.522
333.226
333.969
334.696
335.505
336.301
336.905
337.411
337.906
338.151
338.311
338.479
338.435
338.298
338.141
337.773
337.327
336.847
336.112
335.492
334.846
327.933
328.508
329.241
329.871
330.499
330.919
331.343
331.823
332.026
332.227
332.274
332.276
332.217
331.986
331.731
331.426
330.928
330.316
329.777
329.29
322.725
323.232
323.872
324.368
324.766
325.212
325.568
325.855
326.141
326.237
326.263
326.29
326.178
326.02
325.815
325.534
325.169
324.706
324.191
323.83
317.575
317.972
318.403
318.879
319.209
319.573
319.869
320.005
320.229
320.298
320.315
320.368
320.22
320.165
319.954
319.749
319.499
319.099
318.678
318.48
312.59
312.784
313.15
313.368
313.739
313.897
314.097
314.232
314.368
314.49
314.438
314.507
314.445
314.322
314.211
314.074
313.819
313.582
313.321
313.178
307.536
307.668
307.879
308.042
308.139
308.28
308.466
308.525
308.678
308.667
308.733
308.671
308.683
308.587
308.504
308.416
308.255
308.212
307.926
307.844
302.499
302.608
302.599
302.639
302.717
302.78
302.792
302.864
302.885
302.915
302.918
302.93
302.857
302.865
302.82
302.774
302.733
302.674
302.649
302.611
339.312
340.296
341.268
342.124
343.025
343.796
344.345
344.943
345.402
345.557
345.674
345.615
345.525
345.256
344.891
344.386
343.786
343.01
342.104
341.328
333.816
334.675
335.46
336.323
336.976
337.657
338.184
338.674
338.955
339.12
339.314
339.308
339.124
338.978
338.575
338.161
337.578
336.962
336.22
335.529
328.466
329.119
329.788
330.537
331.1
331.683
332.069
332.472
332.727
332.945
333.004
333.011
332.856
332.712
332.437
332.054
331.597
331.03
330.463
329.913
323.239
323.707
324.355
324.852
325.377
325.728
326.145
326.399
326.568
326.728
326.84
326.889
326.798
326.633
326.365
326.041
325.68
325.24
324.694
324.322
318.006
318.38
318.762
319.307
319.615
319.942
320.18
320.451
320.641
320.747
320.802
320.756
320.811
320.588
320.388
320.155
319.903
319.532
319.187
318.825
312.835
313.055
313.365
313.716
313.969
314.244
314.46
314.511
314.688
314.837
314.848
314.783
314.803
314.618
314.535
314.385
314.225
313.941
313.636
313.421
307.615
307.841
308.098
308.239
308.373
308.444
308.639
308.75
308.848
308.804
308.9
308.888
308.852
308.786
308.66
308.595
308.533
308.374
308.179
308.04
302.557
302.679
302.683
302.767
302.822
302.825
302.825
302.901
302.979
302.979
302.999
302.954
302.877
302.991
302.894
302.846
302.861
302.8
302.743
302.738
339.977
340.967
341.966
342.955
343.852
344.623
345.318
345.701
346.147
346.404
346.532
346.555
346.385
346.149
345.651
345.158
344.639
343.84
342.969
342.152
334.489
335.248
336.14
336.971
337.707
338.369
338.997
339.304
339.696
339.98
340.007
340.009
339.914
339.699
339.399
338.906
338.353
337.597
336.927
336.255
329.057
329.618
330.397
331.06
331.708
332.287
332.738
333.108
333.334
333.548
333.685
333.666
333.54
333.339
333.119
332.679
332.2
331.66
331.076
330.47
323.588
324.076
324.687
325.328
325.813
326.212
326.645
326.942
327.166
327.323
327.4
327.391
327.358
327.17
326.945
326.525
326.18
325.754
325.226
324.812
318.341
318.726
319.23
319.521
320.017
320.313
320.671
320.836
321.035
321.148
321.198
321.136
321.131
320.982
320.835
320.509
320.276
319.902
319.502
319.147
313.042
313.393
313.674
313.972
314.284
314.511
314.645
314.83
314.969
315.105
315.11
315.123
315.054
314.923
314.807
314.669
314.441
314.166
313.782
313.654
307.817
307.947
308.17
308.426
308.513
308.68
308.798
308.87
308.964
309.005
309.055
309.049
308.994
308.9
308.898
308.707
308.582
308.443
308.357
308.243
302.602
302.672
302.762
302.765
302.853
302.919
302.924
303.003
302.975
302.941
303.019
303.068
303.01
302.999
302.979
302.943
302.832
302.825
302.867
302.737
340.703
341.58
342.632
343.664
344.526
345.355
345.965
346.527
346.939
347.228
347.389
347.313
347.199
346.933
346.53
346.028
345.342
344.566
343.691
342.893
334.958
335.819
336.666
337.683
338.321
339.02
339.624
340.036
340.323
340.645
340.759
340.695
340.575
340.343
340.03
339.549
339.017
338.28
337.55
336.938
329.427
330.106
330.866
331.612
332.285
332.794
333.285
333.681
333.893
334.173
334.238
334.293
334.204
333.954
333.613
333.261
332.832
332.206
331.558
330.906
323.973
324.489
325.083
325.717
326.273
326.683
327.119
327.409
327.624
327.863
327.814
327.905
327.754
327.586
327.375
326.976
326.659
326.18
325.681
325.183
318.641
318.974
319.511
319.875
320.361
320.695
320.916
321.188
321.43
321.546
321.537
321.562
321.465
321.408
321.277
320.901
320.671
320.253
319.836
319.575
313.289
313.573
313.87
314.193
314.503
314.673
314.869
315.087
315.253
315.332
315.358
315.303
315.39
315.261
315.083
314.849
314.692
314.431
314.195
313.999
307.964
308.104
308.359
308.51
308.707
308.805
308.936
308.983
309.145
309.184
309.16
309.191
309.255
309.107
309.07
308.915
308.805
308.663
308.465
308.333
302.665
302.72
302.804
302.849
302.976
302.931
303.036
303.007
303.036
303.136
303.125
303.031
303.089
303.082
302.996
302.985
302.959
302.878
302.818
302.746
341.178
342.219
343.281
344.232
345.208
346.024
346.679
347.25
347.563
347.917
348.043
348.151
348.04
347.671
347.192
346.743
346.023
345.218
344.325
343.539
335.553
336.356
337.265
338.09
338.911
339.592
340.133
340.594
341.046
341.18
341.293
341.37
341.149
341.038
340.668
340.19
339.606
338.871
338.205
337.46
329.912
330.606
331.429
332.082
332.67
333.309
333.767
334.163
334.456
334.639
334.661
334.737
334.615
334.516
334.14
333.775
333.282
332.71
332.016
331.481
324.393
324.918
325.473
326.084
326.544
327.155
327.47
327.78
328.033
328.167
328.296
328.233
328.222
328.041
327.791
327.46
327.029
326.633
326.044
325.635
318.866
319.238
319.686
320.267
320.64
321.027
321.337
321.517
321.726
321.797
321.906
321.882
321.803
321.746
321.455
321.234
320.974
320.612
320.298
319.901
313.453
313.719
314.078
314.373
314.686
314.997
315.174
315.355
315.497
315.516
315.531
315.527
315.487
315.42
315.33
315.151
314.939
314.654
314.339
314.189
308.083
308.256
308.42
308.666
308.805
308.985
309.065
309.218
309.305
309.235
309.307
309.303
309.306
309.308
309.211
309.028
308.991
308.818
308.656
308.449
302.664
302.755
302.869
302.906
302.984
303.008
303.054
303.039
303.081
303.04
303.137
303.107
303.084
303.166
303.079
303.013
302.983
302.929
302.897
302.847
341.703
342.702
343.71
344.846
345.722
346.515
347.26
347.803
348.193
348.507
348.672
348.66
348.532
348.357
347.842
347.319
346.603
345.766
344.907
344.071
335.932
336.805
337.747
338.553
339.387
340.051
340.719
341.09
341.45
341.648
341.861
341.865
341.767
341.509
341.229
340.745
340.045
339.422
338.69
337.947
330.241
330.931
331.74
332.443
333.105
333.639
334.166
334.561
334.839
335.062
335.209
335.161
335.121
334.898
334.604
334.185
333.72
333.188
332.469
331.896
324.683
325.119
325.817
326.37
326.91
327.441
327.876
328.184
328.441
328.551
328.603
328.65
328.534
328.407
328.215
327.81
327.4
326.884
326.445
325.902
319.102
319.503
319.991
320.457
320.909
321.303
321.556
321.751
322.029
322.136
322.149
322.161
322.124
321.975
321.785
321.51
321.244
320.839
320.466
320.143
313.601
313.864
314.25
314.576
314.835
315.173
315.303
315.527
315.665
315.743
315.779
315.821
315.726
315.643
315.445
315.351
315.045
314.885
314.553
314.314
308.156
308.329
308.51
308.775
308.982
309.1
309.151
309.269
309.406
309.446
309.414
309.421
309.466
309.361
309.302
309.168
309.06
308.869
308.772
308.622
302.761
302.751
302.927
302.974
302.913
303.04
303.052
303.137
303.13
303.124
303.144
303.164
303.158
303.098
303.097
303.071
302.978
303.007
302.893
302.815
342.087
343.031
344.25
345.245
346.203
347.022
347.716
348.232
348.727
349.033
349.221
349.198
349.021
348.774
348.43
347.836
347.147
346.355
345.363
344.543
336.299
337.066
338.06
338.966
339.786
340.423
341.101
341.504
341.896
342.129
342.337
342.288
342.164
341.99
341.636
341.144
340.598
339.866
339.039
338.352
330.547
331.224
332.05
332.779
333.422
334.02
334.512
334.908
335.221
335.441
335.537
335.545
335.509
335.31
335.003
334.582
334.074
333.543
332.725
332.237
324.894
325.438
326.11
326.685
327.253
327.721
328.016
328.43
328.723
328.892
328.954
328.943
328.907
328.748
328.499
328.102
327.761
327.224
326.701
326.219
319.281
319.707
320.238
320.658
321.093
321.414
321.821
322.089
322.246
322.319
322.502
322.401
322.365
322.201
322.081
321.788
321.466
321.051
320.733
320.319
313.743
314.046
314.436
314.686
315.041
315.323
315.562
315.683
315.784
315.891
315.942
315.912
315.947
315.845
315.632
315.48
315.3
314.933
314.695
314.499
308.248
308.404
308.646
308.838
309.021
309.161
309.329
309.353
309.448
309.529
309.565
309.63
309.572
309.449
309.377
309.287
309.219
308.913
308.811
308.686
302.761
302.771
302.912
302.912
303.016
303.041
303.086
303.167
303.174
303.149
303.169
303.19
303.213
303.172
303.168
303.116
303.107
302.995
302.944
302.873
342.39
343.353
344.496
345.602
346.581
347.362
348.175
348.697
349.099
349.42
349.539
349.601
349.485
349.216
348.765
348.23
347.562
346.727
345.824
344.915
336.487
337.378
338.376
339.356
340.096
340.749
341.381
341.923
342.266
342.523
342.706
342.63
342.595
342.266
341.994
341.474
340.889
340.138
339.388
338.654
330.768
331.426
332.233
333.037
333.705
334.264
334.74
335.251
335.529
335.725
335.9
335.85
335.711
335.576
335.312
334.855
334.397
333.741
333.123
332.422
325.077
325.568
326.296
326.882
327.406
327.879
328.314
328.679
328.957
329.071
329.234
329.144
329.081
328.947
328.717
328.321
327.964
327.413
326.957
326.378
319.475
319.859
320.369
320.804
321.216
321.618
321.962
322.212
322.453
322.524
322.632
322.594
322.59
322.378
322.214
321.955
321.613
321.266
320.822
320.501
313.827
314.215
314.501
314.823
315.162
315.409
315.6
315.832
315.961
316.06
316.065
316.088
316.086
315.992
315.769
315.654
315.416
315.123
314.838
314.613
308.272
308.494
308.658
308.903
309.111
309.239
309.36
309.464
309.571
309.606
309.631
309.614
309.649
309.6
309.444
309.399
309.202
309.08
308.995
308.713
302.756
302.797
302.949
302.948
302.991
303.065
303.119
303.228
303.193
303.191
303.244
303.227
303.163
303.196
303.152
303.088
303.05
303.062
302.949
302.924
342.558
343.585
344.674
345.802
346.755
347.564
348.285
348.879
349.311
349.632
349.858
349.916
349.737
349.434
349.108
348.511
347.743
346.977
346.033
345.125
336.656
337.592
338.512
339.494
340.244
340.994
341.563
342.098
342.473
342.729
342.889
342.852
342.684
342.523
342.216
341.7
341.046
340.415
339.598
338.843
330.926
331.592
332.401
333.139
333.822
334.515
334.994
335.337
335.674
335.892
336.003
336.021
335.961
335.791
335.412
335.061
334.433
333.923
333.296
332.636
325.165
325.741
326.379
326.966
327.583
328.059
328.431
328.757
328.973
329.246
329.274
329.303
329.307
329.041
328.825
328.486
328.063
327.564
327.08
326.624
319.472
319.913
320.457
320.909
321.387
321.794
322.058
322.299
322.467
322.641
322.731
322.668
322.633
322.559
322.298
321.974
321.702
321.348
320.924
320.534
313.889
314.203
314.546
314.912
315.236
315.475
315.702
315.924
316.053
316.138
316.214
316.154
316.182
316.058
315.865
315.771
315.423
315.217
314.88
314.616
308.34
308.478
308.708
308.931
309.143
309.324
309.419
309.466
309.582
309.675
309.625
309.77
309.656
309.57
309.576
309.368
309.23
309.073
308.95
308.766
302.771
302.842
302.966
302.993
303.037
303.125
303.227
303.186
303.242
303.276
303.224
303.288
303.164
303.219
303.194
303.122
303.106
303.073
302.955
302.935
)
;

boundaryField
{
    hotSide
    {
        type            fixedGradient;
        gradient        nonuniform List<scalar> 
400
(
321.511
322.87
325.591
329.677
335.133
341.965
350.181
359.788
370.794
383.208
397.037
412.289
428.971
447.088
466.647
487.651
510.105
534.011
559.372
586.191
323.738
325.08
327.767
331.802
337.194
343.949
352.078
361.591
372.498
384.81
398.537
413.687
430.268
448.289
467.755
488.672
511.043
534.872
560.161
586.913
326.149
327.47
330.116
334.091
339.406
346.071
354.099
363.503
374.296
386.491
400.101
415.136
431.606
449.52
468.885
489.706
511.988
535.735
560.948
587.63
328.704
330
332.597
336.503
341.73
348.292
356.205
365.485
376.15
388.215
401.695
416.604
432.954
450.753
470.009
490.73
512.919
536.579
561.714
588.325
331.33
332.599
335.142
338.97
344.099
350.546
358.332
367.477
378.003
389.928
403.271
418.047
434.27
451.949
471.095
491.712
513.807
537.382
562.439
588.978
333.918
335.158
337.643
341.389
346.414
352.74
360.392
369.397
379.779
391.562
404.765
419.407
435.503
453.065
472.101
492.618
514.622
538.114
563.096
589.569
336.321
337.531
339.959
343.622
348.544
354.751
362.274
371.142
381.385
393.031
406.101
420.618
436.595
454.047
472.983
493.409
515.33
538.747
563.663
590.076
338.36
339.543
341.92
345.509
350.339
356.44
363.847
372.595
382.718
394.244
407.2
421.608
437.485
454.844
473.695
494.045
515.897
539.253
564.114
590.478
339.852
341.015
343.352
346.885
351.645
357.665
364.985
373.643
383.675
395.113
407.984
422.312
438.116
455.407
474.197
494.491
516.294
539.606
564.428
590.758
340.643
341.795
344.11
347.613
352.334
358.311
365.584
374.193
384.176
395.567
408.393
422.679
438.443
455.699
474.456
494.722
516.498
539.788
564.589
590.901
340.643
341.795
344.11
347.613
352.334
358.311
365.584
374.193
384.176
395.567
408.393
422.679
438.443
455.699
474.456
494.722
516.498
539.788
564.589
590.901
339.852
341.015
343.352
346.885
351.645
357.665
364.985
373.643
383.675
395.113
407.984
422.312
438.116
455.407
474.197
494.491
516.294
539.606
564.428
590.758
338.36
339.543
341.92
345.509
350.339
356.44
363.847
372.595
382.718
394.244
407.2
421.608
437.485
454.844
473.695
494.045
515.897
539.253
564.114
590.478
336.321
337.531
339.959
343.622
348.544
354.751
362.274
371.142
381.385
393.031
406.101
420.618
436.595
454.047
472.983
493.409
515.33
538.747
563.663
590.076
333.918
335.158
337.643
341.389
346.414
352.74
360.392
369.397
379.779
391.562
404.765
419.407
435.503
453.065
472.101
492.618
514.622
538.114
563.096
589.569
331.33
332.599
335.142
338.97
344.099
350.546
358.332
367.477
378.003
389.928
403.271
418.047
434.27
451.949
471.095
491.712
513.807
537.382
562.439
588.978
328.704
330
332.597
336.503
341.73
348.292
356.205
365.485
376.15
388.215
401.695
416.604
432.954
450.753
470.009
490.73
512.919
536.579
561.714
588.325
326.149
327.47
330.116
334.091
339.406
346.071
354.099
363.503
374.296
386.491
400.101
415.136
431.606
449.52
468.885
489.706
511.988
535.735
560.948
587.63
323.738
325.08
327.767
331.802
337.194
343.949
352.078
361.591
372.498
384.81
398.537
413.687
430.268
448.289
467.755
488.672
511.043
534.872
560.161
586.913
321.511
322.87
325.591
329.677
335.133
341.965
350.181
359.788
370.794
383.208
397.037
412.289
428.971
447.088
466.647
487.651
510.105
534.011
559.372
586.191
)
;
    }
    coldSide
    {
        type            mixed;
        refValue        uniform 300;
        refGradient     uniform 0;
        valueFraction   uniform 0.991591;
        source          uniform 0;
        value           nonuniform List<scalar> 
400
(
300.015
300.016
300.016
300.017
300.018
300.018
300.018
300.019
300.019
300.02
300.021
300.021
300.022
300.022
300.022
300.022
300.023
300.023
300.023
300.023
300.015
300.016
300.016
300.018
300.018
300.019
300.019
300.019
300.02
300.021
300.021
300.022
300.023
300.022
300.023
300.023