/*--------------------------------*- C++ -*----------------------------------*\
| =========                 |                                                 |
| \\      /  F ield         | OpenFOAM: The Open Source CFD Toolbox           |
|  \\    /   O peration     | Version:  2212                                  |
|   \\  /    A nd           | Website:  www.openfoam.com                      |
|    \\/     M anipulation  |                                                 |
\*---------------------------------------------------------------------------*/
FoamFile
{
    version     2.0;
    format      ascii;
    arch        "LSB;label=32;scalar=64";
    class       volScalarField;
    location    "0";
    object      T;
}
// * * * * * * * * * * * * * * * * * * * * * * * * * * * * * * * * * * * * * //

dimensions      [0 0 0 1 0 0 0];

internalField   nonuniform List<scalar> 
3200
(
341.144
342.001
343.044
343.736
344.227
344.732
345.241
345.471
345.783
345.643
345.591
345.168
344.735
344.215
343.545
342.915
342.048
341.241
340.326
339.43
335.817
336.544
337.414
338.009
338.435
338.9
339.355
339.532
339.789
339.703
339.638
339.276
338.869
338.494
337.846
337.332
336.536
335.895
335.132
334.367
330.449
331.03
331.725
332.231
332.597
333.001
333.368
333.549
333.703
333.696
333.621
333.303
332.969
332.688
332.072
331.712
331.036
330.45
329.827
329.217
324.999
325.485
326.038
326.415
326.711
327.039
327.337
327.521
327.613
327.67
327.562
327.284
327.085
326.829
326.277
326.051
325.478
324.923
324.457
324.031
319.515
319.865
320.322
320.56
320.819
321.093
321.293
321.452
321.464
321.616
321.443
321.238
321.103
320.929
320.389
320.328
319.868
319.374
319.066
318.807
313.973
314.205
314.556
314.714
314.905
315.135
315.256
315.348
315.351
315.486
315.342
315.194
315.086
314.967
314.536
314.533
314.225
313.84
313.624
313.483
308.379
308.528
308.752
308.841
308.931
309.089
309.157
309.249
309.211
309.337
309.23
309.13
309.072
309.01
308.722
308.741
308.55
308.337
308.188
308.118
302.814
302.864
302.925
302.982
303.006
303.055
303.095
303.122
303.09
303.122
303.079
303.05
303.034
303.018
302.942
302.937
302.884
302.805
302.745
302.727
342.185
343.102
344.126
345.056
345.38
345.938
346.463
346.529
346.825
346.858
346.607
346.327
346.15
345.625
344.638
343.8
343.171
342.251
341.294
340.393
336.635
337.385
338.31
339.144
339.432
339.879
340.354
340.416
340.682
340.687
340.473
340.211
340.064
339.67
338.751
338.03
337.514
336.717
335.895
335.159
331.045
331.719
332.477
333.159
333.462
333.774
334.195
334.277
334.493
334.458
334.306
334.085
333.952
333.625
332.845
332.229
331.819
331.168
330.442
329.859
325.398
326.019
326.593
327.179
327.446
327.653
328.027
328.106
328.306
328.253
328.09
327.945
327.828
327.509
326.902
326.442
326.051
325.547
324.934
324.479
319.821
320.278
320.709
321.182
321.351
321.516
321.837
321.87
322.039
322.001
321.866
321.79
321.675
321.396
320.965
320.618
320.278
319.885
319.442
319.07
314.239
314.481
314.838
315.174
315.27
315.347
315.612
315.61
315.737
315.731
315.646
315.627
315.509
315.314
315.023
314.761
314.523
314.199
313.923
313.652
308.587
308.685
308.941
309.127
309.172
309.169
309.366
309.344
309.431
309.451
309.399
309.411
309.304
309.217
309.042
308.847
308.741
308.516
308.355
308.223
302.873
302.892
302.997
303.065
303.051
303.069
303.143
303.133
303.161
303.173
303.155
303.176
303.12
303.086
303.041
302.985
302.926
302.851
302.793
302.749
343.702
344.64
345.626
346.6
346.912
347.531
348.109
348.342
348.335
348.394
348.319
348.032
347.732
347.061
346.441
345.481
344.632
343.772
342.768
341.807
337.923
338.729
339.549
340.412
340.697
341.226
341.766
341.88
341.975
341.949
341.922
341.696
341.407
340.819
340.282
339.432
338.706
337.98
337.122
336.364
332.136
332.827
333.5
334.213
334.449
334.896
335.333
335.44
335.575
335.522
335.48
335.344
335.076
334.537
334.125
333.433
332.773
332.17
331.457
330.848
326.3
326.866
327.453
328.022
328.198
328.555
328.92
329.007
329.139
329.043
329.004
328.964
328.734
328.245
327.967
327.405
326.87
326.304
325.798
325.285
320.449
320.867
321.416
321.852
321.966
322.243
322.494
322.589
322.707
322.564
322.557
322.552
322.378
321.977
321.794
321.355
320.945
320.433
320.067
319.66
314.626
314.876
315.351
315.607
315.702
315.875
316.066
316.129
316.256
316.118
316.095
316.1
315.984
315.699
315.596
315.289
314.988
314.585
314.354
314.016
308.811
308.923
309.25
309.379
309.478
309.567
309.64
309.631
309.776
309.664
309.668
309.683
309.607
309.447
309.377
309.144
309.004
308.763
308.646
308.409
302.975
302.991
303.132
303.139
303.201
303.2
303.232
303.225
303.265
303.255
303.213
303.251
303.237
303.18
303.132
303.059
303.02
302.945
302.9
302.813
345.228
346.131
347.06
347.939
348.72
349.354
349.615
350.058
350.224
350.265
350.313
349.9
349.406
348.663
348.014
347.268
346.392
345.457
344.265
343.111
339.237
340.025
340.818
341.595
342.243
342.804
342.979
343.419
343.57
343.559
343.625
343.262
342.871
342.218
341.633
340.989
340.278
339.459
338.446
337.438
333.206
333.888
334.535
335.252
335.736
336.251
336.341
336.747
336.865
336.849
336.908
336.647
336.306
335.768
335.255
334.709
334.136
333.421
332.564
331.698
327.18
327.756
328.262
328.904
329.232
329.691
329.788
330.055
330.167
330.145
330.173
330.057
329.728
329.308
328.873
328.403
327.968
327.33
326.647
325.996
321.16
321.606
322.021
322.522
322.707
323.151
323.193
323.38
323.472
323.487
323.454
323.433
323.118
322.83
322.5
322.086
321.73
321.233
320.754
320.277
315.132
315.447
315.817
316.107
316.219
316.544
316.598
316.75
316.756
316.801
316.777
316.759
316.522
316.315
316.131
315.79
315.5
315.144
314.839
314.516
309.071
309.282
309.538
309.67
309.735
309.9
309.983
310.05
310.049
310.092
310.096
310.08
309.923
309.8
309.709
309.467
309.298
309.094
308.906
308.701
303.04
303.121
303.214
303.241
303.276
303.328
303.339
303.385
303.358
303.395
303.386
303.387
303.312
303.292
303.243
303.164
303.136
303.061
302.999
302.919
346.771
347.539
348.707
349.615
350.292
351.085
351.349
351.83
352.065
352.241
352.053
351.665
351.167
350.658
350.033
348.992
347.996
346.992
345.765
344.82
340.574
341.239
342.253
343.044
343.578
344.317
344.508
344.93
345.119
345.27
345.1
344.8
344.346
343.888
343.396
342.453
341.596
340.789
339.721
338.907
334.346
334.974
335.772
336.473
336.857
337.512
337.695
338.047
338.137
338.308
338.117
337.899
337.561
337.164
336.772
335.925
335.211
334.554
333.64
332.956
328.146
328.673
329.284
329.878
330.174
330.725
330.855
331.126
331.189
331.329
331.154
330.983
330.729
330.42
330.147
329.389
328.795
328.287
327.555
326.987
321.916
322.324
322.779
323.219
323.497
323.916
324.019
324.232
324.261
324.353
324.237
324.076
323.917
323.642
323.493
322.876
322.364
321.978
321.474
321.042
315.621
315.945
316.306
316.576
316.786
317.113
317.15
317.305
317.375
317.399
317.341
317.182
317.107
316.905
316.773
316.36
315.959
315.689
315.383
315.064
309.377
309.573
309.81
309.952
310.087
310.264
310.31
310.386
310.464
310.47
310.396
310.309
310.285
310.173
310.085
309.827
309.585
309.413
309.254
309.058
303.159
303.206
303.284
303.314
303.393
303.419
303.456
303.495
303.529
303.524
303.484
303.46
303.441
303.403
303.408
303.285
303.21
303.143
303.094
303.029
348.35
349.259
350.464
351.29
351.976
352.871
353.226
353.544
353.751
353.91
353.648
353.408
352.977
352.499
351.852
350.832
349.844
348.687
347.429
346.36
341.922
342.699
343.778
344.48
345.033
345.843
346.173
346.444
346.58
346.715
346.495
346.318
345.94
345.538
345.014
344.091
343.207
342.244
341.136
340.261
335.476
336.133
337.074
337.637
338.143
338.816
339.047
339.334
339.413
339.561
339.345
339.172
338.848
338.503
338.158
337.314
336.622
335.798
334.803
334.112
329.044
329.551
330.331
330.812
331.237
331.749
331.936
332.191
332.247
332.378
332.164
332.094
331.773
331.504
331.286
330.503
329.989
329.335
328.449
327.904
322.584
323.025
323.616
324.025
324.317
324.69
324.858
325.053
325.12
325.198
325.003
325.001
324.673
324.481
324.356
323.734
323.352
322.853
322.141
321.7
316.161
316.461
316.874
317.168
317.362
317.643
317.73
317.882
317.963
317.995
317.88
317.873
317.634
317.519
317.41
316.979
316.694
316.329
315.835
315.532
309.737
309.875
310.128
310.288
310.422
310.595
310.65
310.775
310.757
310.804
310.728
310.719
310.565
310.503
310.475
310.182
310.024
309.815
309.523
309.328
303.285
303.299
303.388
303.456
303.49
303.536
303.558
303.617
303.604
303.644
303.599
303.591
303.546
303.519
303.521
303.4
303.361
303.289
303.214
303.137
349.679
350.794
351.8
352.852
353.513
354.485
354.961
355.24
355.551
355.548
355.239
355.246
354.898
354.202
353.463
352.347
351.616
350.152
349.122
348.142
343.082
344.042
344.937
345.831
346.361
347.252
347.673
347.883
348.151
348.119
347.858
347.922
347.597
346.973
346.351
345.332
344.791
343.497
342.606
341.832
336.466
337.333
338.038
338.824
339.255
339.991
340.401
340.546
340.715
340.726
340.485
340.524
340.318
339.794
339.229
338.355
337.948
336.818
336.094
335.48
329.821
330.541
331.128
331.775
332.126
332.777
333.11
333.242
333.285
333.365
333.102
333.129
332.994
332.57
332.14
331.385
331.078
330.162
329.539
329.107
323.192
323.734
324.23
324.764
324.992
325.503
325.79
325.929
325.911
325.994
325.713
325.771
325.672
325.371
325.028
324.387
324.165
323.504
322.997
322.696
316.589
316.925
317.304
317.711
317.842
318.216
318.419
318.538
318.516
318.578
318.397
318.424
318.358
318.176
317.893
317.416
317.254
316.801
316.448
316.249
309.978
310.138
310.385
310.637
310.711
310.937
311.066
311.143
311.12
311.189
311.08
311.074
310.999
310.904
310.761
310.455
310.352
310.091
309.854
309.758
303.364
303.369
303.476
303.572
303.594
303.678
303.706
303.741
303.729
303.771
303.721
303.703
303.676
303.647
303.585
303.495
303.463
303.4
303.288
303.299
351.142
352.156
353.466
354.499
355.161
355.89
356.611
357.04
357.114
357.295
357.019
356.869
356.484
355.898
355.117
353.838
353.008
351.69
350.743
349.718
344.357
345.212
346.361
347.233
347.811
348.419
349.071
349.459
349.516
349.676
349.405
349.329
348.999
348.528
347.843
346.682
345.981
344.851
344.036
343.182
337.537
338.285
339.268
339.955
340.434
340.973
341.559
341.918
341.899
342.038
341.772
341.742
341.49
341.11
340.52
339.501
338.9
338.012
337.292
336.587
330.72
331.348
332.156
332.651
333.067
333.58
334.056
334.313
334.243
334.444
334.174
334.145
333.961
333.652
333.164
332.333
331.826
331.146
330.489
329.972
323.894
324.378
325.019
325.394
325.751
326.131
326.536
326.72
326.591
326.774
326.535
326.562
326.43
326.253
325.817
325.204
324.777
324.265
323.728
323.329
317.04
317.416
317.865
318.126
318.409
318.675
318.983
319.101
318.956
319.146
318.95
318.992
318.885
318.802
318.425
318.019
317.707
317.343
316.954
316.651
310.254
310.462
310.739
310.898
311.065
311.212
311.414
311.486
311.389
311.533
311.354
311.429
311.358
311.33
311.08
310.816
310.633
310.432
310.205
310.021
303.421
303.51
303.594
303.644
303.717
303.746
303.825
303.856
303.825
303.871
303.807
303.822
303.824
303.79
303.707
303.607
303.57
303.482
303.422
303.353
352.327
353.369
354.694
355.947
356.604
357.458
358.321
358.643
358.749
358.959
358.817
358.54
358.155
357.522
356.559
355.496
354.618
353.482
352.044
351.038
345.38
346.226
347.42
348.494
349.091
349.834
350.567
350.828
350.94
351.125
351.015
350.769
350.418
349.9
349.046
348.114
347.33
346.363
345.169
344.304
338.453
339.092
340.145
341.031
341.524
342.207
342.798
343.028
343.11
343.288
343.194
342.983
342.676
342.236
341.535
340.745
340.03
339.262
338.281
337.582
331.523
331.938
332.82
333.575
333.943
334.529
335.018
335.209
335.285
335.425
335.341
335.183
334.908
334.568
334
333.32
332.731
332.123
331.351
330.766
324.51
324.792
325.488
326.116
326.348
326.85
327.272
327.39
327.454
327.54
327.506
327.361
327.132
326.881
326.434
325.859
325.486
324.977
324.405
323.949
317.488
317.713
318.211
318.635
318.81
319.193
319.517
319.582
319.613
319.667
319.664
319.54
319.411
319.223
318.87
318.466
318.236
317.822
317.494
317.119
310.486
310.628
310.906
311.202
311.286
311.524
311.687
311.749
311.739
311.782
311.791
311.751
311.693
311.553
311.323
311.081
310.948
310.708
310.52
310.325
303.524
303.549
303.655
303.755
303.788
303.85
303.909
303.918
303.933
303.943
303.941
303.938
303.914
303.872
303.811
303.705
303.675
303.578
303.528
303.464
353.723
354.723
355.864
357.256
358.027
358.79
359.496
360.148
360.186
360.421
360.372
360.011
359.486
358.875
357.841
357.068
356.158
354.587
353.444
352.433
346.605
347.43
348.432
349.639
350.286
350.962
351.562
352.179
352.207
352.407
352.346
352.066
351.602
351.065
350.19
349.479
348.712
347.311
346.342
345.544
339.477
340.148
340.983
342.019
342.497
343.137
343.585
344.153
344.191
344.379
344.323
344.105
343.723
343.228
342.542
341.867
341.262
340.055
339.214
338.584
332.325
332.869
333.506
334.317
334.759
335.275
335.615
336.148
336.181
336.286
336.294
336.154
335.862
335.385
334.868
334.273
333.769
332.799
332.07
331.581
325.151
325.559
326.055
326.71
327.038
327.44
327.724
328.153
328.166
328.207
328.231
328.192
327.93
327.534
327.197
326.642
326.232
325.54
324.941
324.544
317.955
318.264
318.582
319.084
319.307
319.592
319.804
320.084
320.115
320.115
320.197
320.193
319.981
319.679
319.443
319.028
318.726
318.254
317.818
317.532
310.757
310.968
311.145
311.467
311.6
311.762
311.907
312.07
312.084
312.071
312.116
312.129
312.02
311.83
311.671
311.431
311.254
310.979
310.723
310.509
303.588
303.656
303.719
303.863
303.907
303.932
304.004
304.078
304.066
304.043
304.057
304.06
304.025
303.99
303.905
303.84
303.788
303.68
303.616
303.529
354.998
355.957
357.051
358.603
359.26
360.348
360.913
361.609
361.732
361.925
361.768
361.522
361.099
360.339
359.468
358.417
357.369
356.182
354.692
353.323
347.703
348.522
349.465
350.786
351.309
352.313
352.815
353.48
353.541
353.676
353.616
353.375
352.952
352.346
351.608
350.657
349.78
348.71
347.414
346.313
340.39
341.027
341.894
342.935
343.417
344.258
344.708
345.298
345.345
345.451
345.376
345.184
344.829
344.324
343.718
342.881
342.149
341.226
340.101
339.23
333.033
333.557
334.294
335.08
335.501
336.2
336.531
337.077
337.108
337.241
337.12
336.987
336.702
336.304
335.79
335.133
334.507
333.718
332.846
332.15
325.676
326.116
326.697
327.278
327.569
328.187
328.383
328.842
328.867
328.967
328.868
328.801
328.561
328.258
327.839
327.381
326.879
326.178
325.556
325.059
318.318
318.72
319.066
319.452
319.676
320.144
320.237
320.594
320.662
320.677
320.637
320.584
320.41
320.26
319.914
319.576
319.233
318.701
318.241
317.917
311.013
311.316
311.445
311.67
311.795
312.103
312.127
312.357
312.435
312.42
312.416
312.387
312.267
312.201
312.004
311.774
311.553
311.248
310.934
310.758
303.69
303.796
303.825
303.909
303.939
304.059
304.045
304.136
304.19
304.157
304.171
304.165
304.132
304.08
304.015
303.939
303.858
303.784
303.65
303.602
356.143
357.166
358.399
359.68
360.581
361.553
362.082
362.744
363.15
363.192
363.131
362.888
362.41
361.685
360.674
359.85
358.642
357.43
355.939
354.48
348.753
349.543
350.601
351.715
352.463
353.369
353.849
354.425
354.786
354.76
354.726
354.556
354.096
353.518
352.64
351.875
350.846
349.817
348.51
347.281
341.243
341.926
342.862
343.743
344.367
345.127
345.57
346.054
346.373
346.364
346.275
346.199
345.78
345.321
344.55
343.937
343.041
342.169
341.063
340.041
333.731
334.292
335.105
335.812
336.283
336.91
337.262
337.683
337.936
337.979
337.894
337.818
337.479
337.071
336.443
335.974
335.226
334.543
333.611
332.762
326.229
326.686
327.28
327.861
328.189
328.707
328.939
329.328
329.502
329.531
329.497
329.435
329.188
328.82
328.372
328.011
327.421
326.91
326.114
325.497
318.75
319.116
319.5
319.94
320.133
320.5
320.661
320.962
321.06
321.094
321.066
321.064
320.864
320.591
320.299
320.062
319.627
319.238
318.62
318.229
311.245
311.489
311.718
311.956
312.096
312.277
312.401
312.608
312.609
312.678
312.67
312.659
312.556
312.374
312.208
312.059
311.803
311.563
311.148
310.929
303.754
303.832
303.922
304.009
304.051
304.1
304.149
304.233
304.219
304.245
304.243
304.235
304.213
304.15
304.101
304.041
303.947
303.875
303.726
303.647
357.259
358.401
359.762
360.711
361.578
362.766
363.471
363.986
364.215
364.333
364.424
364.007
363.566
362.998
362.054
361.091
359.846
358.501
356.989
355.578
349.65
350.626
351.759
352.647
353.353
354.38
355.021
355.464
355.69
355.806
355.849
355.512
355.112
354.636
353.827
352.951
351.87
350.732
349.396
348.228
342.031
342.808
343.8
344.591
345.129
346.002
346.569
346.905
347.122
347.24
347.298
346.995
346.655
346.255
345.629
344.843
343.909
342.943
341.788
340.817
334.348
334.99
335.891
336.474
336.93
337.603
338.071
338.411
338.551
338.672
338.685
338.45
338.22
337.831
337.344
336.725
335.965
335.166
334.228
333.395
326.723
327.203
327.966
328.383
328.736
329.233
329.58
329.897
330.01
330.048
330.071
329.922
329.727
329.438
329.059
328.569
327.996
327.376
326.679
325.93
319.093
319.429
319.971
320.305
320.535
320.861
321.132
321.394
321.454
321.456
321.444
321.388
321.241
321.034
320.79
320.42
320.017
319.568
319.092
318.529
311.485
311.642
311.985
312.167
312.301
312.538
312.721
312.86
312.882
312.875
312.857
312.864
312.754
312.644
312.496
312.274
311.997
311.734
311.453
311.133
303.855
303.902
304.02
304.076
304.113
304.209
304.278
304.311
304.334
304.319
304.304
304.315
304.26
304.252
304.179
304.127
304.023
303.939
303.843
303.733
357.946
359.365
360.845
361.82
362.865
363.804
364.398
365.136
365.49
365.378
365.476
365.078
364.702
363.915
363.068
362.196
360.903
359.52
358.214
356.73
350.247
351.474
352.734
353.583
354.457
355.291
355.814
356.499
356.795
356.689
356.789
356.49
356.13
355.415
354.717
353.964
352.808
351.615
350.461
349.253
342.573
343.564
344.606
345.362
346.051
346.81
347.302
347.853
348.073
348.037
348.071
347.813
347.556
346.953
346.303
345.693
344.75
343.671
342.646
341.718
334.867
335.598
336.447
337.084
337.639
338.34
338.716
339.188
339.374
339.332
339.312
339.124
338.973
338.455
337.898
337.394
336.659
335.681
334.899
334.15
327.136
327.685
328.333
328.807
329.243
329.844
330.125
330.533
330.632
330.618
330.559
330.419
330.332
329.917
329.518
329.093
328.516
327.739
327.15
326.559
319.411
319.783
320.22
320.579
320.911
321.31
321.512
321.845
321.915
321.88
321.829
321.698
321.705
321.356
321.108
320.776
320.393
319.85
319.458
318.976
311.688
311.886
312.128
312.36
312.567
312.804
312.908
313.131
313.202
313.121
313.108
313.032
313.056
312.88
312.69
312.464
312.275
311.948
311.709
311.405
303.911
303.956
304.076
304.146
304.216
304.276
304.311
304.398
304.422
304.411
304.385
304.39
304.37
304.351
304.264
304.17
304.132
304.001
303.925
303.837
358.584
360.125
361.622
362.723
363.898
364.96
365.549
365.981
366.253
366.337
366.32
366.001
365.613
364.92
364.023
363.092
361.886
360.416
358.948
357.684
350.813
352.141
353.431
354.37
355.391
356.305
356.842
357.213
357.428
357.54
357.489
357.225
356.9
356.281
355.492
354.678
353.679
352.407
351.133
350.074
343.008
344.122
345.196
345.985
346.848
347.63
348.084
348.451
348.607
348.759
348.658
348.408
348.22
347.626
346.986
346.274
345.477
344.345
343.259
342.441
335.154
336.098
336.926
337.561
338.305
338.943
339.346
339.653
339.794
339.906
339.786
339.611
339.493
338.971
338.508
337.844
337.231
336.237
335.36
334.784
327.317
328.053
328.708
329.215
329.787
330.298
330.617
330.881
330.946
331.055
330.992
330.822
330.73
330.313
329.985
329.418
328.937
328.165
327.509
327.1
319.486
320.055
320.51
320.877
321.277
321.628
321.865
322.091
322.139
322.129
322.123
322.041
322.003
321.657
321.425
320.988
320.689
320.134
319.681
319.378
311.702
312.03
312.31
312.537
312.762
313.003
313.108
313.276
313.347
313.249
313.279
313.21
313.203
312.996
312.893
312.635
312.417
312.109
311.824
311.635
303.92
304.018
304.122
304.199
304.266
304.362
304.392
304.432
304.483
304.45
304.449
304.436
304.427
304.335
304.336
304.235
304.168
304.049
303.964
303.913
359.489
360.77
362.289
363.35
364.379
365.51
366.324
366.835
367.095
367.202
367.304
366.881
366.442
365.766
364.956
364.018
362.621
361.171
359.749
358.433
351.584
352.72
354.006
354.904
355.806
356.776
357.485
357.914
358.135
358.272
358.344
357.985
357.595
357.007
356.322
355.499
354.283
353.008
351.813
350.732
343.635
344.646
345.727
346.449
347.235
348.051
348.64
349.002
349.17
349.339
349.374
349.02
348.69
348.22
347.663
346.985
345.948
344.829
343.875
342.978
335.696
336.532
337.415
337.997
338.605
339.321
339.823
340.066
340.23
340.391
340.418
340.049
339.849
339.448
339.03
338.431
337.611
336.666
335.958
335.153
327.792
328.388
329.117
329.555
329.991
330.591
331.013
331.132
331.28
331.426
331.413
331.083
330.983
330.678
330.382
329.913
329.305
328.495
327.991
327.347
319.883
320.29
320.817
321.086
321.441
321.917
322.168
322.186
322.32
322.479
322.437
322.214
322.142
321.899
321.728
321.38
321.014
320.319
319.97
319.499
311.937
312.217
312.5
312.641
312.892
313.175
313.328
313.283
313.385
313.515
313.456
313.352
313.305
313.138
313.047
312.855
312.633
312.174
311.973
311.694
303.989
304.093
304.175
304.234
304.341
304.393
304.476
304.446
304.468
304.554
304.517
304.493
304.469
304.385
304.363
304.32
304.232
304.084
304.006
303.913
360.154
361.208
362.796
364.141
365.311
366.194
367.073
367.579
367.746
368.22
368.068
367.616
367.15
366.695
365.71
364.645
363.367
361.843
360.375
359.307
352.136
353.017
354.401
355.598
356.586
357.398
358.179
358.569
358.69
359.181
359.012
358.607
358.233
357.813
356.976
356.009
354.89
353.578
352.337
351.455
344.126
344.871
346.011
347.069
347.871
348.576
349.248
349.526
349.622
350.099
349.947
349.623
349.266
348.936
348.232
347.377
346.425
345.32
344.332
343.521
336.069
336.738
337.662
338.544
339.136
339.765
340.276
340.527
340.603
340.972
340.908
340.629
340.31
340.055
339.505
338.744
337.977
337.099
336.323
335.595
328.074
328.573
329.321
329.996
330.409
330.933
331.268
331.494
331.586
331.855
331.831
331.627
331.357
331.15
330.771
330.15
329.536
328.892
328.304
327.69
320.034
320.45
320.963
321.393
321.671
322.075
322.284
322.494
322.575
322.737
322.71
322.592
322.411
322.261
321.989
321.553
321.091
320.661
320.284
319.794
312.008
312.263
312.585
312.845
312.982
313.217
313.385
313.498
313.564
313.698
313.633
313.533
313.454
313.358
313.198
312.962
312.656
312.425
312.177
311.902
304.013
304.102
304.214
304.316
304.353
304.429
304.503
304.532
304.54
304.601
304.577
304.539
304.518
304.482
304.43
304.335
304.242
304.146
304.091
304.002
360.455
361.585
363.162
364.808
365.762
366.765
367.597
368.185
368.534
368.579
368.566
368.297
367.861
367.324
366.425
365.09
364.115
362.672
361.125
359.873
352.441
353.337
354.764
356.197
356.987
357.887
358.6
359.074
359.401
359.482
359.443
359.213
358.763
358.37
357.544
356.405
355.597
354.299
353.003
351.946
344.387
345.143
346.367
347.557
348.246
348.99
349.637
349.964
350.249
350.368
350.323
350.112
349.674
349.41
348.676
347.707
347.081
345.934
344.881
343.999
336.354
336.924
337.952
338.942
339.524
340.074
340.65
340.877
341.121
341.239
341.211
340.99
340.579
340.408
339.805
339.01
338.571
337.615
336.736
336.028
328.297
328.736
329.562
330.259
330.748
331.169
331.601
331.788
331.995
332.103
332.055
331.913
331.564
331.424
330.953
330.314
330.02
329.304
328.557
327.99
320.196
320.521
321.172
321.624
321.958
322.275
322.536
322.71
322.884
322.93
322.925
322.815
322.549
322.425
322.135
321.675
321.472
320.964
320.417
319.964
312.145
312.348
312.739
312.991
313.19
313.374
313.515
313.668
313.73
313.783
313.784
313.726
313.559
313.491
313.282
313.028
312.896
312.606
312.267
311.993
304.056
304.136
304.282
304.35
304.421
304.483
304.523
304.602
304.604
304.632
304.616
304.603
304.542
304.527
304.434
304.377
304.338
304.222
304.11
304.002
360.602
361.972
363.634
365.006
366.231
367.308
368.059
368.77
368.9
369.307
369.083
368.455
368.356
367.688
366.872
365.654
364.587
363.096
361.589
360.221
352.564
353.691
355.154
356.305
357.376
358.323
359.003
359.583
359.679
360.082
359.856
359.325
359.239
358.635
357.993
356.899
356.023
354.741
353.396
352.242
344.515
345.406
346.632
347.622
348.551
349.327
349.97
350.37
350.518
350.844
350.677
350.183
350.113
349.614
349.107
348.15
347.453
346.366
345.199
344.199
336.472
337.12
338.163
338.937
339.726
340.329
340.913
341.141
341.358
341.586
341.489
341.059
340.988
340.612
340.171
339.401
338.886
337.977
336.933
336.13
328.404
328.891
329.689
330.241
330.883
331.361
331.769
331.978
332.181
332.317
332.262
331.893
331.854
331.594
331.267
330.68
330.264
329.599
328.709
328.083
320.322
320.609
321.225
321.607
322.034
322.4
322.681
322.815
322.991
323.072
323.021
322.739
322.756
322.586
322.385
321.956
321.62
321.171
320.548
320.064
312.216
312.386
312.756
312.992
313.241
313.443
313.623
313.72
313.815
313.866
313.831
313.639
313.658
313.569
313.489
313.203
312.96
312.707
312.346
312.068
304.079
304.156
304.282
304.353
304.443
304.499
304.572
304.592
304.638
304.663
304.64
304.572
304.595
304.548
304.51
304.442
304.338
304.256
304.139
304.048
360.965
362.28
363.8
364.909
366.462
367.35
368.327
368.92
369.345
369.557
369.296
368.779
368.618
368.035
366.9
365.934
364.795
363.273
361.965
360.503
352.837
353.985
355.241
356.255
357.546
358.365
359.241
359.745
360.118
360.369
360.028
359.581
359.459
358.917
357.948
357.158
356.19
354.833
353.717
352.469
344.731
345.664
346.741
347.582
348.616
349.37
350.133
350.604
350.863
351.112
350.752
350.406
350.314
349.834
349.036
348.353
347.552
346.4
345.476
344.402
336.567
337.33
338.222
338.926
339.709
340.357
341.021
341.437
341.583
341.777
341.491
341.229
341.179
340.788
340.113
339.567
338.932
338.028
337.187
336.336
328.397
328.987
329.745
330.275
330.864
331.402
331.885
332.238
332.294
332.456
332.265
332.072
332.102
331.737
331.221
330.75
330.277
329.637
328.934
328.256
320.235
320.627
321.268
321.648
321.987
322.446
322.738
323.02
323.052
323.192
323.062
322.895
322.932
322.659
322.285
321.968
321.629
321.201
320.654
320.211
312.153
312.386
312.807
312.991
313.176
313.488
313.635
313.809
313.825
313.937
313.861
313.719
313.787
313.618
313.372
313.188
313.035
312.714
312.363
312.147
304.071
304.157
304.301
304.349
304.424
304.512
304.572
304.618
304.625
304.669
304.639
304.615
304.622
304.565
304.486
304.426
304.366
304.256
304.136
304.066
)
;

boundaryField
{
    hotSide
    {
        type            fixedGradient;
        gradient        nonuniform List<scalar> 
400
(
423.017
440.7
458.145
475.273
492.006
508.264
523.97
539.045
553.416
567.009
579.755
591.588
602.445
612.271
621.014
628.627
635.07
640.312
644.325
647.089
433.469
451.708
469.707
487.385
504.66
521.452
537.679
553.262
568.123
582.186
595.38
607.637
618.893
629.088
638.169
646.088
652.805
658.283
662.497
665.425
442.69
461.439
479.947
498.131
515.907
533.191
549.9
565.952
581.267
595.768
609.379
622.032
633.659
644.2
653.6
661.809
668.784
674.49
678.897
681.984
450.626
469.835
488.803
507.445
525.674
543.405
560.553
577.033
592.763
607.663
621.658
634.674
646.644
657.506
667.201
675.68
682.898
688.817
693.409
696.65
457.231
476.847
496.223
515.271
533.903
552.033
569.572
586.435
602.537
617.796
632.136
645.481
657.762
668.915
678.881
687.607
695.049
701.168
705.932
709.32
462.473
482.44
502.167
521.567
540.549
559.025
576.905
594.102
610.53
626.106
640.749
654.385
666.942
678.355
688.563
697.512
705.157
711.458
716.383
719.908
466.331
486.589
506.609
526.303
545.578
564.345
582.514
599.994
616.699
632.544
647.448
661.334
674.13
685.768
696.187
705.333
713.159
719.623
724.693
728.345
468.793
489.28
509.533
529.46
548.97
567.971
586.372
604.082
621.012
637.078
652.197
666.29
679.284
691.112
701.71
711.024
719.005
725.611
730.81
734.577
469.858
490.511
510.933
531.032
550.715
569.891
588.466
606.35
623.453
639.688
654.973
669.229
682.38
694.358
705.101
714.552
722.662
729.388
734.698
738.566
469.533
490.287
510.814
531.021
550.816
570.105
588.795
606.795
624.015
640.368
655.769
670.14
683.405
695.495
706.346
715.901
724.112
730.935
736.336
740.289
467.835
488.624
509.19
529.441
549.283
568.623
587.368
605.426
622.707
639.122
654.589
669.027
682.361
694.521
705.443
715.07
723.352
730.246
735.718
739.741
464.786
485.544
506.083
526.313
546.138
565.467
584.205
602.261
619.545
635.97
651.45
665.906
679.263
691.451
702.406
712.07
720.393
727.332
732.853
736.929
460.417
481.078
501.525
521.668
541.412
560.666
579.336
597.331
614.561
630.939
646.38
660.806
674.14
686.313
697.261
706.927
715.26
722.218
727.766
731.877
454.767
475.265
495.554
515.545
535.144
554.261
572.801
590.675
607.794
624.07
639.42
653.765
667.03
679.146
690.048
699.68
707.993
714.942
720.494
724.622
447.878
468.148
488.216
507.991
527.382
546.299
564.65
582.344
599.295
615.415
630.622
644.837
657.987
670.003
680.82
690.384
698.644
705.558
711.091
715.217
439.801
459.78
479.563
499.06
518.182
536.839
554.94
572.398
589.125
605.035
620.048
634.086
647.076
658.949
669.644
679.105
687.281
694.133
699.624
703.73
430.592
450.219
469.656
488.815
507.608
525.946
543.741
560.906
577.354
593.004
607.773
621.587
634.372
646.063
656.598
665.921
673.984
680.747
686.174
690.241
420.313
439.53
458.562
477.325
495.731
513.695
531.128
547.947
564.066
579.404
593.883
607.427
619.966
631.435
641.773
650.926
658.846
665.494
670.836
674.846
409.031
427.783
446.356
464.667
482.633
500.168
517.188
533.609
549.35
564.329
578.472
591.704
603.957
615.166
625.273
634.225
641.975
648.484
653.719
657.656
396.821
415.055
433.117
450.926
468.401
485.458
502.015
517.991
533.307
547.884
561.648
574.528
586.456
597.371
607.214
615.936
623.489
629.836
634.946
638.792
)
;
    }
    coldSide
    {
        type            mixed;
        refValue        uniform 300;
        refGradient     uniform 0;
        valueFraction   uniform 0.991591;
        source          uniform 0;
        value           nonuniform List<scalar> 
400
(
300.024
300.024
300.025
300.026
300.027
300.028
300.028
300.029
300.03
300.03
300.031
300.032
300.032
300.033
300.033
300.034
300.034
300.034
300.034
300.034
300.024
300.024
300.025
300.026
300.027
300.028
300.028
300.03
300.03
300.031
300.032
300.032
300.033
300.033
300.034
300.034
300.034
300.035
300.035
300.035
300.025
300.025