/*--------------------------------*- C++ -*----------------------------------*\
| =========                 |                                                 |
| \\      /  F ield         | OpenFOAM: The Open Source CFD Toolbox           |
|  \\    /   O peration     | Version:  2212                                  |
|   \\  /    A nd           | Website:  www.openfoam.com                      |
|    \\/     M anipulation  |                                                 |
\*---------------------------------------------------------------------------*/
FoamFile
{
    version     2.0;
    format      ascii;
    arch        "LSB;label=32;scalar=64";
    class       volScalarField;
    location    "0";
    object      T;
}
// * * * * * * * * * * * * * * * * * * * * * * * * * * * * * * * * * * * * * //

dimensions      [0 0 0 1 0 0 0];

internalField   nonuniform List<scalar> 
3200
(
347.214
347.96
348.94
350.267
350.829
351.297
351.749
352.053
352.282
352.063
352.072
351.631
351.356
350.863
350.006
349.252
348.126
347.271
346.197
345.234
340.971
341.552
342.437
343.662
344.065
344.44
344.855
345.117
345.302
345.151
345.126
344.774
344.538
344.074
343.336
342.701
341.681
340.972
340.013
339.257
334.692
335.166
335.943
336.965
337.28
337.613
337.954
338.22
338.291
338.209
338.158
337.887
337.692
337.281
336.698
336.158
335.244
334.699
333.897
333.228
328.42
328.799
329.404
330.287
330.494
330.794
331.074
331.307
331.312
331.269
331.195
331.001
330.813
330.467
330.065
329.592
328.806
328.415
327.798
327.176
322.125
322.431
322.897
323.602
323.688
323.988
324.233
324.365
324.361
324.316
324.235
324.119
323.943
323.685
323.412
322.967
322.407
322.122
321.695
321.112
315.833
316.038
316.375
316.89
316.915
317.169
317.356
317.437
317.358
317.364
317.305
317.243
317.111
316.914
316.742
316.409
315.994
315.772
315.525
315.038
309.501
309.645
309.871
310.181
310.145
310.307
310.463
310.511
310.375
310.433
310.407
310.384
310.291
310.177
310.08
309.824
309.621
309.476
309.336
309.045
303.177
303.223
303.307
303.41
303.38
303.447
303.527
303.55
303.473
303.51
303.482
303.49
303.45
303.4
303.381
303.284
303.235
303.173
303.13
303.013
348.294
349.344
350.269
351.291
351.887
352.466
352.915
353.253
353.506
353.591
353.365
353.148
352.71
352.059
351.06
350.568
349.454
348.248
347.374
346.29
341.844
342.72
343.531
344.42
344.902
345.387
345.763
346.119
346.324
346.407
346.22
346.014
345.643
345.047
344.163
343.809
342.799
341.746
341.044
340.107
335.434
336.125
336.851
337.597
337.93
338.382
338.72
339.033
339.211
339.234
339.077
338.922
338.581
338.036
337.326
337.046
336.176
335.3
334.693
333.955
329.035
329.483
330.157
330.78
331.01
331.377
331.694
331.946
332.099
332.089
331.949
331.87
331.569
331.067
330.538
330.302
329.528
328.86
328.348
327.764
322.608
322.914
323.477
323.963
324.109
324.423
324.706
324.865
324.992
324.928
324.903
324.811
324.563
324.144
323.748
323.585
322.965
322.46
322.001
321.577
316.18
316.377
316.75
317.105
317.221
317.465
317.723
317.814
317.84
317.788
317.777
317.729
317.565
317.249
316.969
316.863
316.412
316.08
315.709
315.431
309.718
309.822
310.002
310.274
310.336
310.47
310.676
310.687
310.692
310.675
310.68
310.636
310.532
310.345
310.207
310.121
309.86
309.634
309.417
309.267
303.255
303.292
303.359
303.431
303.457
303.482
303.599
303.596
303.572
303.557
303.586
303.574
303.527
303.476
303.418
303.403
303.31
303.212
303.147
303.109
349.695
350.824
351.826
352.652
353.351
354.048
354.611
354.838
355.29
355.247
354.986
354.725
354.253
353.735
352.88
352.05
351.062
349.982
348.648
347.579
343.012
343.986
344.814
345.499
346.093
346.685
347.271
347.479
347.82
347.831
347.521
347.342
346.891
346.488
345.714
345.048
344.136
343.224
342.078
341.208
336.387
337.189
337.822
338.43
338.938
339.404
339.969
340.149
340.407
340.469
340.15
340.003
339.604
339.252
338.636
338.077
337.229
336.492
335.611
334.854
329.754
330.371
330.9
331.411
331.842
332.172
332.687
332.784
332.976
333.082
332.796
332.718
332.327
332.065
331.62
331.126
330.393
329.81
329.117
328.491
323.124
323.575
324.03
324.443
324.775
324.984
325.394
325.453
325.621
325.722
325.523
325.456
325.121
324.941
324.593
324.157
323.619
323.169
322.642
322.127
316.505
316.807
317.186
317.443
317.701
317.831
318.172
318.179
318.283
318.354
318.226
318.203
317.95
317.816
317.606
317.263
316.888
316.559
316.17
315.805
309.925
310.072
310.299
310.474
310.637
310.689
310.949
310.915
310.976
311.02
310.945
310.916
310.767
310.689
310.582
310.339
310.126
309.937
309.72
309.488
303.314
303.371
303.427
303.53
303.579
303.564
303.674
303.659
303.683
303.698
303.656
303.651
303.605
303.572
303.544
303.471
303.393
303.332
303.249
303.176
351.213
352.298
353.601
354.499
355.333
355.978
356.456
356.854
356.911
357.141
356.723
356.516
356.138
355.313
354.61
354.12
352.641
351.624
350.334
349.461
344.311
345.245
346.367
347.121
347.839
348.415
348.833
349.17
349.245
349.441
349.047
348.849
348.523
347.85
347.205
346.802
345.499
344.625
343.542
342.836
337.401
338.191
339.165
339.764
340.375
340.862
341.22
341.543
341.572
341.811
341.451
341.245
340.991
340.417
339.841
339.54
338.411
337.65
336.769
336.214
330.581
331.178
332.038
332.523
332.979
333.331
333.663
333.936
333.948
334.141
333.866
333.692
333.5
333.035
332.518
332.299
331.38
330.692
330.048
329.647
323.794
324.249
324.897
325.315
325.58
325.866
326.172
326.362
326.376
326.499
326.324
326.188
326.037
325.689
325.258
325.078
324.34
323.819
323.38
323.051
317.002
317.338
317.782
318.087
318.267
318.452
318.689
318.798
318.809
318.912
318.799
318.696
318.641
318.311
318.005
317.908
317.337
317.003
316.703
316.478
310.215
310.415
310.655
310.848
310.966
311.096
311.255
311.286
311.266
311.343
311.279
311.199
311.201
310.974
310.788
310.763
310.36
310.222
310.005
309.892
303.438
303.5
303.578
303.628
303.664
303.724
303.758
303.774
303.77
303.823
303.78
303.72
303.728
303.673
303.619
303.594
303.453
303.44
303.341
303.302
352.935
354.007
355.116
356.078
356.858
357.684
358.203
358.65
358.79
358.67
358.799
358.42
358.017
357.198
356.435
355.774
354.445
353.116
351.983
351.038
345.808
346.668
347.679
348.501
349.172
349.882
350.345
350.718
350.855
350.721
350.832
350.517
350.161
349.478
348.805
348.204
347.062
345.934
344.963
344.203
338.69
339.37
340.333
340.988
341.533
342.158
342.557
342.807
342.955
342.837
342.916
342.646
342.376
341.846
341.234
340.703
339.693
338.796
338.004
337.405
331.586
332.124
332.991
333.538
333.906
334.473
334.81
334.936
335.082
335.001
335.077
334.872
334.673
334.233
333.687
333.228
332.402
331.672
331.046
330.561
324.545
324.95
325.634
326.076
326.347
326.799
327.055
327.136
327.217
327.191
327.266
327.119
326.999
326.612
326.154
325.787
325.142
324.605
324.112
323.804
317.54
317.82
318.252
318.643
318.838
319.099
319.351
319.372
319.374
319.433
319.492
319.393
319.323
318.988
318.636
318.352
317.932
317.543
317.221
317.032
310.509
310.72
310.963
311.213
311.309
311.457
311.623
311.612
311.6
311.684
311.696
311.655
311.611
311.349
311.143
311.01
310.755
310.514
310.327
310.245
303.512
303.594
303.678
303.774
303.786
303.837
303.885
303.878
303.881
303.91
303.922
303.9
303.869
303.781
303.725
303.684
303.615
303.518
303.459
303.442
354.382
355.578
356.624
357.763
358.874
359.427
360.218
360.523
360.45
360.578
360.627
360.3
359.816
359.009
358.401
357.338
356.238
354.814
353.467
352.472
347.082
348.065
349.014
349.943
350.857
351.4
352.129
352.326
352.263
352.363
352.43
352.127
351.679
350.988
350.501
349.589
348.654
347.358
346.185
345.437
339.795
340.615
341.48
342.177
342.903
343.462
344.051
344.206
344.132
344.228
344.28
344.046
343.596
343.086
342.645
341.859
341.12
339.957
338.983
338.405
332.544
333.164
333.941
334.512
335.035
335.545
335.997
336.11
336.041
336.113
336.15
335.984
335.575
335.222
334.84
334.205
333.569
332.644
331.841
331.411
325.344
325.784
326.416
326.858
327.26
327.637
327.977
328.035
327.994
328.031
328.108
327.977
327.595
327.349
327.077
326.57
326.047
325.364
324.805
324.362
318.13
318.381
318.874
319.211
319.482
319.727
319.996
320.017
319.942
320.024
320.045
319.99
319.677
319.497
319.352
318.966
318.599
318.092
317.733
317.368
310.895
311.033
311.339
311.531
311.69
311.841
312.002
312.022
311.978
311.994
312.029
312
311.799
311.7
311.643
311.387
311.186
310.838
310.664
310.383
303.653
303.705
303.785
303.855
303.913
303.982
304.027
304.013
304.014
304.008
304.033
304.03
303.958
303.909
303.912
303.819
303.737
303.622
303.597
303.481
355.794
357.2
358.245
359.331
360.315
361.221
361.826
362.253
362.259
362.328
362.162
361.816
361.358
360.746
360.074
358.894
357.8
356.518
354.906
354.114
348.339
349.481
350.38
351.288
352.182
353.002
353.477
353.826
353.864
353.888
353.757
353.473
353.043
352.523
351.957
350.912
349.952
348.843
347.455
346.814
340.916
341.85
342.566
343.324
344.094
344.839
345.177
345.447
345.516
345.473
345.444
345.179
344.804
344.361
343.874
342.96
342.192
341.252
340.047
339.581
333.475
334.241
334.786
335.43
336.066
336.682
336.887
337.112
337.235
337.147
337.151
336.912
336.574
336.277
335.832
335.079
334.499
333.744
332.686
332.4
326.006
326.621
327.024
327.524
328.049
328.507
328.63
328.853
328.974
328.887
328.88
328.691
328.424
328.224
327.833
327.269
326.808
326.196
325.375
325.169
318.569
319.022
319.288
319.652
320.013
320.349
320.445
320.62
320.691
320.601
320.631
320.509
320.258
320.133
319.846
319.473
319.128
318.682
318.089
317.964
311.138
311.388
311.56
311.778
312.011
312.21
312.263
312.396
312.432
312.338
312.392
312.332
312.158
312.068
311.908
311.701
311.501
311.218
310.837
310.795
303.726
303.83
303.875
303.958
304.013
304.092
304.115
304.151
304.161
304.127
304.145
304.135
304.099
304.036
303.983
303.925
303.85
303.77
303.637
303.626
357.307
358.468
359.829
360.946
361.867
362.616
363.357
363.803
363.83
364.011
363.608
363.667
362.938
362.306
361.553
360.569
359.447
358.081
356.525
355.57
349.585
350.608
351.738
352.685
353.523
354.179
354.786
355.206
355.166
355.335
355.002
355.046
354.439
353.903
353.216
352.355
351.399
350.228
348.88
348.074
341.953
342.76
343.695
344.479
345.215
345.761
346.311
346.636
346.588
346.729
346.482
346.476
345.926
345.524
344.937
344.209
343.429
342.389
341.278
340.653
334.311
334.978
335.736
336.372
336.931
337.415
337.868
338.077
338.09
338.158
337.948
337.951
337.503
337.223
336.712
336.094
335.471
334.57
333.691
333.28
326.667
327.227
327.78
328.279
328.69
329.155
329.441
329.567
329.609
329.617
329.45
329.464
329.126
328.932
328.493
328.045
327.511
326.84
326.17
325.906
319.042
319.455
319.88
320.184
320.478
320.81
320.985
321.105
321.096
321.162
321.034
321.017
320.745
320.672
320.334
319.976
319.605
319.141
318.716
318.51
311.399
311.679
311.975
312.099
312.27
312.493
312.556
312.631
312.608
312.706
312.63
312.598
312.445
312.417
312.181
311.999
311.723
311.487
311.278
311.117
303.813
303.921
304.016
304.052
304.106
304.197
304.195
304.222
304.218
304.226
304.214
304.233
304.169
304.161
304.075
304.026
303.916
303.838
303.787
303.713
358.629
360.257
361.233
362.323
363.53
364.01
364.899
365.259
365.344
365.498
365.263
365.158
364.635
364.191
363.104
362.006
360.782
359.381
357.913
357
350.772
352.089
352.977
353.902
354.877
355.362
356.103
356.441
356.456
356.614
356.436
356.346
355.867
355.562
354.544
353.596
352.516
351.334
350.053
349.323
342.963
343.978
344.743
345.557
346.332
346.776
347.404
347.688
347.608
347.803
347.633
347.587
347.146
346.922
346.08
345.241
344.315
343.334
342.257
341.678
335.155
335.939
336.541
337.248
337.844
338.223
338.719
338.973
338.842
339.027
338.925
338.937
338.522
338.336
337.673
336.931
336.169
335.387
334.52
334.104
327.288
327.947
328.386
328.968
329.385
329.728
330.061
330.332
330.147
330.321
330.276
330.257
329.936
329.815
329.269
328.672
328.1
327.499
326.843
326.516
319.474
319.996
320.304
320.69
320.945
321.287
321.461
321.681
321.534
321.645
321.604
321.611
321.365
321.322
320.917
320.46
320.061
319.649
319.117
318.913
311.677
312.026
312.206
312.415
312.545
312.816
312.92
313.043
312.939
312.993
312.936
312.978
312.829
312.808
312.545
312.283
312.03
311.788
311.48
311.348
303.913
304.042
304.082
304.174
304.197
304.304
304.33
304.377
304.331
304.348
304.32
304.353
304.291
304.303
304.199
304.106
304.02
303.957
303.827
303.809
359.95
361.543
362.488
363.805
364.894
365.76
366.233
366.699
367.02
366.986
366.791
366.568
366.227
365.368
364.389
363.359
362.213
360.891
359.438
358.47
351.91
353.237
354.027
355.216
356.12
356.874
357.266
357.645
357.93
357.86
357.703
357.59
357.217
356.518
355.634
354.771
353.778
352.636
351.405
350.6
343.877
344.94
345.63
346.632
347.423
348.024
348.378
348.654
348.903
348.83
348.713
348.645
348.293
347.765
346.968
346.256
345.393
344.431
343.425
342.766
335.856
336.69
337.307
338.099
338.708
339.215
339.553
339.779
339.975
339.885
339.844
339.751
339.418
339.031
338.336
337.742
337.104
336.253
335.444
334.92
327.818
328.481
328.981
329.596
330.011
330.446
330.759
330.961
331.056
331.004
331.024
330.861
330.643
330.342
329.782
329.302
328.844
328.154
327.541
327.109
319.86
320.313
320.683
321.08
321.399
321.696
321.968
322.141
322.199
322.146
322.196
322.05
321.918
321.698
321.246
320.929
320.635
320.078
319.646
319.342
311.92
312.225
312.436
312.618
312.813
313.022
313.184
313.281
313.328
313.289
313.357
313.235
313.195
313.034
312.753
312.603
312.394
312.039
311.781
311.6
303.977
304.119
304.18
304.227
304.305
304.367
304.422
304.436
304.437
304.44
304.482
304.428
304.43
304.363
304.269
304.23
304.142
304.03
303.937
303.881
361.259
362.552
363.901
364.813
366.269
367.114
367.539
368.143
368.238
368.433
368.398
368.013
367.514
366.594
365.799
364.887
363.581
362.194
360.726
359.686
353.055
354.113
355.245
356.04
357.288
358.039
358.382
358.884
358.957
359.159
359.111
358.832
358.394
357.581
356.862
356.072
354.993
353.791
352.487
351.66
344.88
345.706
346.659
347.293
348.394
348.968
349.284
349.694
349.737
349.948
349.919
349.733
349.349
348.596
348.027
347.367
346.449
345.426
344.31
343.651
336.657
337.35
338.087
338.609
339.543
339.984
340.263
340.594
340.607
340.818
340.782
340.626
340.313
339.619
339.236
338.699
337.965
337.106
336.213
335.642
328.437
328.994
329.563
329.963
330.749
331.05
331.301
331.537
331.503
331.742
331.682
331.545
331.323
330.736
330.487
330.042
329.521
328.874
328.114
327.717
320.252
320.69
321.081
321.374
322
322.183
322.341
322.486
322.466
322.707
322.59
322.511
322.378
321.874
321.805
321.447
321.092
320.631
320.053
319.779
312.119
312.402
312.625
312.839
313.184
313.317
313.405
313.471
313.485
313.622
313.56
313.506
313.451
313.132
313.103
312.833
312.662
312.404
312.024
311.871
304.057
304.144
304.212
304.303
304.422
304.453
304.464
304.494
304.526
304.551
304.545
304.514
304.506
304.403
304.393
304.285
304.235
304.159
304.031
303.969
362.342
363.41
364.914
366.187
367.297
368.257
369.058
369.676
369.751
369.707
369.722
369.42
368.701
368.123
367.302
366.018
364.71
363.409
362.055
360.948
353.946
354.856
356.109
357.223
358.155
358.992
359.69
360.262
360.346
360.251
360.276
360.036
359.404
358.931
358.137
357.095
355.915
354.787
353.668
352.754
345.604
346.354
347.394
348.361
349.061
349.781
350.406
350.897
350.965
350.854
350.907
350.723
350.188
349.76
349.076
348.26
347.206
346.247
345.322
344.556
337.259
337.89
338.695
339.53
340.047
340.628
341.2
341.564
341.621
341.553
341.577
341.45
341.004
340.612
340.053
339.44
338.575
337.775
337.053
336.38
328.927
329.43
330.097
330.728
331.099
331.548
332.024
332.33
332.335
332.316
332.284
332.181
331.837
331.538
331.081
330.649
329.952
329.394
328.786
328.278
320.636
320.961
321.439
321.931
322.2
322.532
322.909
323.055
323.062
323.069
323.039
322.959
322.684
322.516
322.149
321.878
321.343
321.006
320.549
320.193
312.378
312.55
312.849
313.162
313.3
313.526
313.772
313.811
313.83
313.864
313.824
313.752
313.601
313.527
313.27
313.121
312.816
312.612
312.297
312.122
304.139
304.222
304.335
304.399
304.444
304.511
304.61
304.623
304.63
304.658
304.648
304.61
304.561
304.552
304.463
304.4
304.292
304.22
304.102
304.057
363.265
364.573
365.962
367.299
368.388
369.341
370.045
370.84
371.089
371
370.798
370.624
369.891
369.48
368.388
367.201
366.032
364.521
363.241
361.967
354.756
355.847
357.068
358.247
359.142
359.964
360.569
361.242
361.481
361.426
361.175
361.066
360.425
360.091
359.138
358.099
357.077
355.759
354.696
353.633
346.283
347.207
348.189
349.231
349.935
350.611
351.125
351.696
351.971
351.898
351.664
351.572
351.039
350.764
349.951
349.077
348.191
347.092
346.223
345.321
337.839
338.601
339.371
340.222
340.806
341.341
341.754
342.22
342.519
342.383
342.196
342.152
341.676
341.508
340.826
340.102
339.351
338.457
337.801
337.047
329.389
329.99
330.602
331.208
331.697
332.137
332.431
332.815
333.062
332.885
332.801
332.694
332.352
332.255
331.707
331.125
330.544
329.883
329.38
328.767
321.024
321.394
321.87
322.289
322.652
322.931
323.141
323.442
323.557
323.477
323.412
323.278
323.098
323.011
322.621
322.224
321.768
321.341
320.976
320.538
312.637
312.83
313.165
313.371
313.602
313.775
313.912
314.057
314.131
314.126
314.048
313.959
313.874
313.78
313.557
313.336
313.016
312.827
312.578
312.321
304.243
304.308
304.416
304.491
304.57
304.634
304.654
304.715
304.739
304.758
304.687
304.667
304.648
304.606
304.542
304.475
304.354
304.276
304.204
304.113
364.176
365.635
366.857
368.081
369.361
370.464
371.294
371.868
371.836
372.107
371.728
371.497
371.038
370.467
369.363
368.281
367.025
365.438
364.229
362.974
355.545
356.762
357.81
358.865
359.99
360.94
361.657
362.154
362.114
362.314
361.996
361.799
361.409
360.923
359.95
359.033
357.891
356.553
355.561
354.519
346.929
347.955
348.861
349.741
350.631
351.506
352.043
352.515
352.478
352.541
352.364
352.138
351.871
351.498
350.602
349.848
348.835
347.772
346.937
346.099
338.297
339.195
339.944
340.673
341.364
342.088
342.489
342.92
342.879
342.853
342.805
342.576
342.375
342.077
341.326
340.689
339.882
339.032
338.367
337.72
329.772
330.488
331.057
331.583
332.111
332.741
332.979
333.345
333.336
333.202
333.25
333.088
332.912
332.693
332.072
331.572
330.95
330.344
329.833
329.366
321.254
321.732
322.172
322.565
322.931
323.375
323.531
323.788
323.806
323.648
323.731
323.626
323.506
323.294
322.922
322.546
322.085
321.699
321.318
320.969
312.777
313.044
313.309
313.543
313.743
314.05
314.118
314.32
314.275
314.199
314.209
314.183
314.122
313.948
313.765
313.529
313.274
313.037
312.814
312.569
304.293
304.37
304.483
304.538
304.598
304.718
304.741
304.822
304.765
304.776
304.742
304.748
304.735
304.667
304.592
304.52
304.453
304.371
304.301
304.225
365.035
366.368
367.85
368.952
370.424
371.226
372.105
372.741
373.071
373.066
372.741
372.441
372.12
371.245
370.287
369.152
367.756
366.287
364.859
363.681
356.297
357.417
358.678
359.631
360.88
361.636
362.345
362.844
363.214
363.185
362.854
362.592
362.342
361.603
360.752
359.762
358.554
357.322
356.092
355.086
347.611
348.524
349.589
350.356
351.347
352.081
352.674
353.05
353.385
353.358
353.091
352.845
352.631
352.028
351.258
350.477
349.422
348.468
347.392
346.57
338.926
339.636
340.526
341.162
341.897
342.543
343.058
343.316
343.606
343.551
343.383
343.122
342.975
342.491
341.851
341.252
340.386
339.633
338.727
338.078
330.227
330.774
331.482
331.999
332.531
333.038
333.469
333.676
333.848
333.788
333.724
333.502
333.358
333.011
332.525
332.046
331.356
330.848
330.135
329.608
321.556
321.963
322.488
322.836
323.229
323.543
323.915
324.051
324.176
324.097
324.115
323.94
323.818
323.57
323.263
322.892
322.367
322.065
321.541
321.121
312.92
313.198
313.465
313.712
313.958
314.088
314.356
314.428
314.53
314.413
314.489
314.401
314.292
314.133
313.988
313.751
313.428
313.272
312.956
312.667
304.316
304.433
304.519
304.6
304.676
304.705
304.828
304.84
304.872
304.826
304.85
304.833
304.778
304.737
304.703
304.619
304.495
304.465
304.351
304.245
365.654
367.135
368.509
369.753
370.943
371.809
372.625
373.291
373.977
374.105
373.745
373.318
372.959
372.032
370.999
370.003
368.696
367.244
365.564
364.259
356.829
358.096
359.261
360.354
361.309
362.06
362.839
363.395
363.975
364.081
363.779
363.379
363.105
362.234
361.335
360.498
359.398
358.119
356.663
355.6
348.04
349.098
350.085
351.015
351.771
352.421
353.15
353.566
354.034
354.065
353.874
353.496
353.269
352.52
351.776
351.049
350.172
349.069
347.856
347.005
339.27
340.1
340.941
341.7
342.299
342.856
343.49
343.742
344.135
344.145
344.001
343.665
343.499
342.903
342.238
341.718
340.944
340.066
339.082
338.413
330.496
331.156
331.774
332.415
332.856
333.301
333.798
333.979
334.292
334.302
334.205
333.919
333.776
333.346
332.785
332.419
331.755
331.148
330.354
329.847
321.795
322.232
322.663
323.162
323.436
323.77
324.157
324.295
324.483
324.519
324.443
324.203
324.108
323.844
323.344
323.146
322.676
322.246
321.637
321.301
313.066
313.332
313.603
313.906
314.077
314.288
314.497
314.601
314.721
314.72
314.672
314.52
314.46
314.318
313.99
313.9
313.597
313.365
312.957
312.815
304.374
304.467
304.561
304.677
304.701
304.778
304.875
304.897
304.94
304.929
304.903
304.85
304.839
304.804
304.687
304.662
304.558
304.488
304.34
304.288
366.206
367.461
369.108
370.213
371.468
372.434
373.406
374.145
374.498
374.541
374.244
373.877
373.523
372.728
371.848
370.604
369.306
367.971
366.294
364.591
357.279
358.372
359.789
360.697
361.784
362.629
363.486
364.116
364.427
364.477
364.218
363.829
363.569
362.872
362.143
361.011
359.921
358.751
357.291
355.852
348.397
349.313
350.502
351.286
352.176
352.93
353.613
354.149
354.404
354.45
354.24
353.888
353.712
353.102
352.514
351.503
350.588
349.584
348.36
347.16
339.572
340.33
341.255
341.908
342.644
343.268
343.787
344.262
344.435
344.498
344.3
344.023
343.864
343.305
342.915
342.057
341.367
340.482
339.487
338.536
330.768
331.368
332.061
332.57
333.136
333.624
334.053
334.391
334.505
334.638
334.428
334.19
334.064
333.581
333.296
332.675
332.198
331.456
330.713
329.954
321.969
322.415
322.886
323.211
323.654
324.012
324.376
324.558
324.627
324.725
324.587
324.367
324.293
323.977
323.767
323.344
323.031
322.448
321.937
321.396
313.213
313.44
313.742
313.939
314.208
314.403
314.683
314.736
314.769
314.808
314.789
314.639
314.594
314.398
314.293
314.02
313.814
313.493
313.149
312.831
304.408
304.512
304.611
304.689
304.77
304.834
304.918
304.94
304.945
304.954
304.947
304.913
304.9
304.802
304.778
304.702
304.621
304.516
304.411
304.303
366.578
368.007
369.632
370.742
372.047
372.973
374.011
374.821
374.921
374.938
374.752
374.502
374.007
373.194
372.556
371.175
369.836
368.319
366.621
365.194
357.603
358.792
360.273
361.108
362.311
363.124
364.01
364.727
364.797
364.772
364.607
364.385
363.982
363.282
362.748
361.527
360.398
359.044
357.579
356.367
348.697
349.665
350.95
351.588
352.656
353.317
354.087
354.644
354.73
354.685
354.554
354.36
354.015
353.432
352.97
351.964
350.995
349.797
348.583
347.603
339.828
340.531
341.63
342.113
343.02
343.549
344.19
344.636
344.718
344.668
344.581
344.409
344.114
343.631
343.231
342.425
341.681
340.682
339.662
338.895
330.951
331.478
332.344
332.692
333.428
333.787
334.329
334.664
334.735
334.723
334.623
334.541
334.241
333.893
333.574
332.976
332.387
331.612
330.776
330.22
322.097
322.471
323.075
323.344
323.875
324.075
324.514
324.734
324.798
324.823
324.703
324.658
324.406
324.163
323.971
323.544
323.101
322.594
321.969
321.611
313.229
313.525
313.879
314.002
314.355
314.432
314.707
314.845
314.877
314.885
314.817
314.773
314.636
314.492
314.421
314.074
313.855
313.577
313.204
312.973
304.41
304.546
304.649
304.698
304.817
304.827
304.946
304.961
304.978
304.989
304.966
304.944
304.909
304.866
304.849
304.696
304.64
304.56
304.429
304.35
366.81
368.166
369.906
371.051
372.454
373.374
374.262
374.936
375.429
375.402
375.217
374.832
374.342
373.573
372.879
371.765
370.191
368.496
367.03
365.522
357.803
358.949
360.472
361.386
362.652
363.392
364.199
364.759
365.247
365.206
365.074
364.7
364.246
363.577
363.043
362.019
360.648
359.236
357.925
356.692
348.813
349.802
351.069
351.796
352.933
353.463
354.229
354.698
355.122
355.088
354.965
354.664
354.192
353.655
353.243
352.359
351.171
350.065
348.926
347.932
339.881
340.721
341.723
342.355
343.323
343.628
344.32
344.662
345.02
344.997
344.902
344.649
344.23
343.818
343.524
342.772
341.747
340.899
339.978
339.176
330.951
331.701
332.42
332.917
333.718
333.897
334.442
334.669
334.958
334.966
334.882
334.703
334.324
334.051
333.797
333.263
332.387
331.813
331.053
330.463
322.055
322.661
323.139
323.502
324.113
324.164
324.603
324.682
324.937
324.967
324.91
324.793
324.477
324.267
324.104
323.758
323.099
322.745
322.165
321.806
313.249
313.625
313.906
314.118
314.486
314.541
314.771
314.8
314.949
314.968
314.955
314.909
314.685
314.57
314.464
314.293
313.85
313.699
313.342
313.123
304.449
304.582
304.653
304.723
304.856
304.884
304.957
304.964
305.013
305.03
305
304.997
304.917
304.885
304.85
304.808
304.626
304.613
304.479
304.392
366.94
368.272
369.934
371.459
372.689
373.484
374.356
375.206
375.548
375.679
375.208
375.043
374.739
373.745
373.182
371.778
370.394
368.718
367.248
365.651
357.969
359.026
360.497
361.771
362.865
363.532
364.291
365.037
365.329
365.422
365.011
364.858
364.57
363.754
363.297
362.072
360.813
359.387
358.089
356.773
349.043
349.863
351.136
352.177
353.127
353.654
354.255
354.906
355.242
355.222
354.909
354.781
354.492
353.86
353.492
352.443
351.333
350.14
349.043
347.925
340.115
340.765
341.766
342.647
343.407
343.798
344.326
344.878
345.184
345.133
344.851
344.705
344.46
343.958
343.741
342.884
341.915
340.987
340.053
339.159
331.198
331.704
332.445
333.117
333.709
334.026
334.432
334.896
335.121
335.031
334.857
334.711
334.574
334.144
334
333.334
332.555
331.854
331.101
330.464
322.294
322.685
323.139
323.612
324.038
324.258
324.589
324.935
325.089
324.984
324.913
324.745
324.746
324.39
324.274
323.826
323.25
322.725
322.173
321.796
313.404
313.648
313.856
314.153
314.424
314.541
314.747
314.994
315.072
314.969
314.943
314.832
314.865
314.671
314.574
314.329
313.958
313.63
313.328
313.096
304.477
304.57
304.659
304.741
304.836
304.861
304.943
305.018
305.057
305.016
305.018
304.972
304.996
304.902
304.871
304.82
304.692
304.575
304.493
304.4
)
;

boundaryField
{
    hotSide
    {
        type            fixedGradient;
        gradient        nonuniform List<scalar> 
400
(
498.603
517.409
535.879
553.929
571.479
588.445
604.745
620.301
635.034
648.872
661.741
673.577
684.318
693.906
702.291
709.429
715.281
719.817
723.013
724.854
511.007
530.384
549.42
568.03
586.129
603.633
620.456
636.517
651.736
666.037
679.346
691.593
702.717
712.656
721.36
728.782
734.882
739.629
742.997
744.971
522.009
541.907
561.461
580.583
599.186
617.183
634.487
651.014
666.681
681.41
695.124
707.754
719.233
729.501
738.503
746.192
752.527
757.474
761.008
763.111
531.546
551.912
571.932
591.515
610.573
629.015
646.753
663.701
679.775
694.893
708.978
721.956
733.761
744.33
753.608
761.544
768.097
773.233
776.925
779.153
539.57
560.347
580.776
600.766
620.224
639.061
657.184
674.506
690.942
706.406
720.822
734.113
746.212
757.053
766.579
774.741
781.495
786.805
790.644
792.992
546.044
567.172
587.952
608.289
628.092
647.268
665.724
683.37
700.119
715.886
730.59
744.155
756.511
767.592
777.34
785.703
792.637
798.105
802.079
804.539
550.942
572.359
593.427
614.052
634.141
653.598
672.331
690.248
707.26
723.281
738.229
752.027
764.602
775.889
785.828
794.366
801.458
807.066
811.162
813.725
554.25
575.89
597.183
618.033
638.346
658.026
676.978
695.11
712.333
728.558
743.703
757.689
770.444
781.901
791.998
800.683
807.909
813.638
817.841
820.497
555.964
577.761
599.212
620.223
640.697
660.537
679.65
697.94
715.318
731.695
746.989
761.119
774.011
785.599
795.821
804.622
811.957
817.786
822.08
824.816
556.087
577.974
599.517
620.623
641.193
661.131
680.342
698.732
716.209
732.686
748.077
762.304
775.291
786.971
797.282
806.169
813.585
819.492
823.858
826.662
554.634
576.541
598.109
619.242
639.844
659.816
679.064
697.494
715.013
731.534
746.972
761.247
774.285
786.016
796.38
805.32
812.79
818.751
823.172
826.03
551.625
573.484
595.009
616.102
636.668
656.611
675.833
694.242
711.747
728.257
743.69
757.965
771.008
782.749
793.128
802.089
809.585
815.576
820.031
822.929
547.087
568.83
590.243
611.23
631.696
651.544
670.679
689.007
706.438
722.883
738.259
752.485
765.488
777.198
787.555
796.503
803.995
809.992
814.462
817.384
541.056
562.615
583.849
604.664
624.964
644.654
663.639
681.827
699.127
715.452
730.719
744.847
757.765
769.402
779.7
788.601
796.061
802.039
806.504
809.435
533.573
554.881
575.871
596.448
616.518
635.987
654.762
672.751
689.864
706.015
721.121
735.104
747.892
759.416
769.616
778.439
785.837
791.771
796.212
799.136
524.686
545.68
566.36
586.636
606.414
625.602
644.106
661.838
678.709
694.633
709.529
723.32
735.934
747.305
757.372
766.083
773.391
779.258
783.654
786.557
514.452
535.067
555.377
575.29
594.715
613.562
631.74
649.159
665.734
681.38
696.018
709.572
721.97
733.149
743.048
751.616
758.806
764.583
768.915
771.782
502.931
523.108
542.987
562.479
581.495
599.945
617.74
634.794
651.022
666.342
680.675
693.948
706.091
717.04
726.737
735.132
742.179
747.843
752.093
754.909
490.193
509.877
529.269
548.284
566.835
584.834
602.195
618.834
634.667
649.614
663.6
676.551
688.399
699.084
708.548
716.741
723.62
729.15
733.301
736.053
476.317
495.453
514.306
532.793
550.828
568.326
585.205
601.381
616.774
631.306
644.902
657.493
669.013
679.4
688.601
696.566
703.254
708.63
712.666
715.341
)
;
    }
    coldSide
    {
        type            mixed;
        refValue        uniform 300;
        refGradient     uniform 0;
        valueFraction   uniform 0.991591;
        source          uniform 0;
        value           nonuniform List<scalar> 
400
(
300.027
300.027
300.028
300.029
300.03
300.031
300.031
300.032
300.033
300.033
300.034
300.035
300.036
300.036
300.036
300.037
300.037
300.037
300.037
300.038
300.027
300.028
300.028
300.029
300.03
300.031
300.032
300.033
300.034
300.035
300.035
300.036
300.036
300.037
300.037
300.038
300.038
300.038
300.039