/*--------------------------------*- C++ -*----------------------------------*\
| =========                 |                                                 |
| \\      /  F ield         | OpenFOAM: The Open Source CFD Toolbox           |
|  \\    /   O peration     | Version:  2212                                  |
|   \\  /    A nd           | Website:  www.openfoam.com                      |
|    \\/     M anipulation  |                                                 |
\*---------------------------------------------------------------------------*/
FoamFile
{
    version     2.0;
    format      ascii;
    arch        "LSB;label=32;scalar=64";
    class       volScalarField;
    location    "0";
    object      T;
}
// * * * * * * * * * * * * * * * * * * * * * * * * * * * * * * * * * * * * * //

dimensions      [0 0 0 1 0 0 0];

internalField   nonuniform List<scalar> 
3200
(
316.938
317.004
317.153
317.248
317.704
317.924
317.858
317.62
318.117
317.875
318.068
317.846
317.554
317.549
317.418
316.983
316.874
316.835
316.26
316.147
314.75
314.841
314.933
315.021
315.45
315.627
315.569
315.376
315.833
315.596
315.787
315.613
315.298
315.306
315.18
314.789
314.735
314.671
314.156
314.064
312.563
312.632
312.715
312.76
313.153
313.28
313.239
313.042
313.465
313.255
313.432
313.311
313.056
313.019
312.933
312.545
312.554
312.518
312.065
311.938
310.346
310.4
310.428
310.478
310.837
310.87
310.846
310.705
311.062
310.908
311.05
310.955
310.784
310.72
310.661
310.317
310.277
310.327
309.934
309.791
308.089
308.164
308.106
308.178
308.519
308.447
308.436
308.362
308.621
308.508
308.642
308.583
308.448
308.346
308.378
308.091
307.998
308.068
307.759
307.628
305.801
305.866
305.779
305.88
306.163
306.033
306.026
305.99
306.164
306.127
306.187
306.209
306.074
306.004
306.049
305.83
305.723
305.768
305.57
305.437
303.49
303.531
303.463
303.517
303.777
303.586
303.587
303.603
303.679
303.69
303.726
303.754
303.667
303.609
303.652
303.515
303.462
303.493
303.365
303.269
301.168
301.181
301.146
301.195
301.265
301.2
301.201
301.224
301.235
301.235
301.257
301.253
301.236
301.21
301.226
301.178
301.135
301.159
301.111
301.099
317.65
317.583
317.944
318.087
318.39
318.621
318.676
318.67
318.663
318.592
318.636
318.694
318.57
318.34
318.156
317.69
317.793
317.6
317.017
316.748
315.381
315.298
315.63
315.725
316.015
316.204
316.228
316.231
316.231
316.151
316.224
316.315
316.113
315.952
315.793
315.387
315.461
315.327
314.797
314.562
313.036
312.982
313.285
313.374
313.621
313.732
313.755
313.778
313.812
313.699
313.828
313.9
313.64
313.56
313.435
313.1
313.078
313.014
312.594
312.348
310.665
310.655
310.937
310.984
311.217
311.256
311.305
311.268
311.344
311.263
311.427
311.444
311.125
311.145
311.053
310.777
310.685
310.626
310.343
310.139
308.28
308.319
308.518
308.565
308.799
308.794
308.833
308.762
308.847
308.805
308.982
308.919
308.636
308.667
308.616
308.427
308.323
308.265
308.08
307.897
305.926
305.957
306.104
306.116
306.321
306.301
306.306
306.253
306.35
306.335
306.426
306.39
306.167
306.218
306.157
306.047
305.941
305.911
305.796
305.64
303.559
303.564
303.663
303.653
303.817
303.789
303.778
303.757
303.807
303.826
303.887
303.868
303.699
303.748
303.724
303.636
303.573
303.551
303.518
303.414
301.204
301.174
301.221
301.229
301.305
301.26
301.267
301.268
301.261
301.274
301.331
301.288
301.262
301.27
301.254
301.222
301.231
301.208
301.191
301.158
318.49
318.567
318.855
319.183
319.207
319.5
319.722
319.777
319.616
319.727
319.563
319.631
319.548
319.405
319.341
319.109
318.896
318.431
318.158
317.652
316.08
316.087
316.355
316.668
316.663
316.875
317.093
317.176
317.051
317.128
316.995
317.074
316.959
316.891
316.806
316.606
316.412
315.989
315.754
315.349
313.649
313.634
313.876
314.172
314.146
314.257
314.489
314.593
314.475
314.512
314.443
314.469
314.38
314.376
314.294
314.107
313.894
313.552
313.39
313.049
311.246
311.192
311.339
311.687
311.588
311.645
311.888
312.002
311.893
311.89
311.883
311.891
311.796
311.793
311.736
311.577
311.35
311.101
310.998
310.724
308.82
308.747
308.813
309.114
308.999
309.069
309.29
309.413
309.291
309.223
309.252
309.263
309.175
309.215
309.181
309.021
308.822
308.61
308.545
308.358
306.343
306.273
306.288
306.491
306.435
306.511
306.662
306.778
306.658
306.574
306.626
306.618
306.581
306.578
306.573
306.452
306.285
306.166
306.073
306
303.827
303.765
303.774
303.852
303.886
303.921
303.99
304.105
304.018
303.922
303.995
303.98
303.946
303.969
303.979
303.856
303.776
303.72
303.611
303.625
301.29
301.26
301.273
301.31
301.317
301.319
301.335
301.401
301.359
301.314
301.362
301.335
301.326
301.347
301.341
301.282
301.267
301.247
301.198
301.23
319.305
319.67
320.031
320.064
320.223
320.61
320.708
320.876
320.958
320.825
320.816
320.608
320.469
320.427
320.518
320.339
319.864
319.748
319.192
318.772
316.748
317.063
317.43
317.406
317.517
317.923
317.959
318.151
318.212
318.111
318.093
317.86
317.753
317.745
317.805
317.683
317.233
317.118
316.632
316.331
314.197
314.422
314.797
314.77
314.824
315.201
315.196
315.389
315.446
315.367
315.362
315.144
315.003
315.027
315.09
314.985
314.603
314.466
314.081
313.825
311.65
311.782
312.161
312.085
312.147
312.444
312.457
312.604
312.686
312.598
312.584
312.436
312.281
312.252
312.357
312.292
311.957
311.83
311.565
311.323
309.111
309.219
309.504
309.416
309.446
309.718
309.671
309.835
309.907
309.794
309.831
309.681
309.554
309.55
309.652
309.597
309.294
309.21
309.038
308.832
306.576
306.628
306.812
306.714
306.726
306.968
306.882
307.062
307.079
306.984
307.052
306.934
306.818
306.832
306.901
306.886
306.638
306.524
306.483
306.35
303.949
303.978
304.105
304.026
304.059
304.19
304.127
304.272
304.273
304.177
304.237
304.195
304.101
304.114
304.111
304.116
303.968
303.922
303.913
303.855
301.318
301.346
301.358
301.351
301.347
301.418
301.385
301.443
301.446
301.388
301.405
301.425
301.371
301.377
301.376
301.38
301.322
301.309
301.323
301.288
320.193
320.624
321.08
321.174
321.561
321.853
321.885
322.071
322.283
322.129
322.063
321.905
321.736
321.714
321.7
321.333
321.092
320.835
320.379
320.17
317.547
317.886
318.306
318.432
318.73
318.965
319.003
319.199
319.375
319.173
319.167
319.001
318.854
318.807
318.861
318.569
318.287
318.124
317.703
317.511
314.869
315.152
315.528
315.629
315.895
316.045
316.103
316.287
316.438
316.237
316.227
316.09
315.965
315.926
315.962
315.745
315.483
315.353
314.995
314.881
312.188
312.395
312.675
312.796
313.037
313.169
313.164
313.317
313.435
313.293
313.304
313.126
313.037
313.025
313.04
312.912
312.635
312.552
312.274
312.205
309.479
309.671
309.842
309.943
310.173
310.302
310.237
310.358
310.442
310.342
310.342
310.201
310.115
310.142
310.095
310.074
309.793
309.809
309.525
309.562
306.746
306.942
307.059
307.114
307.276
307.384
307.287
307.395
307.467
307.369
307.374
307.269
307.215
307.229
307.201
307.223
306.959
307.064
306.78
306.859
304.038
304.183
304.264
304.279
304.359
304.47
304.379
304.456
304.446
304.435
304.418
304.343
304.328
304.367
304.354
304.37
304.188
304.281
304.041
304.117
301.354
301.412
301.433
301.45
301.446
301.517
301.471
301.488
301.479
301.505
301.481
301.432
301.457
301.466
301.457
301.464
301.414
301.431
301.34
301.376
321.318
321.52
322.276
322.37
322.695
323.078
323.043
323.229
323.462
323.206
323.247
323.211
322.859
322.731
322.765
322.717
322.381
321.951
321.626
321.304
318.491
318.65
319.337
319.428
319.758
320.08
319.977
320.16
320.381
320.149
320.196
320.16
319.802
319.645
319.734
319.756
319.403
319.113
318.778
318.497
315.655
315.829
316.374
316.471
316.724
317.028
316.87
317.055
317.268
317.094
317.156
317.048
316.753
316.594
316.651
316.766
316.435
316.204
315.873
315.708
312.789
312.972
313.433
313.505
313.683
313.97
313.77
313.968
314.186
313.969
314.055
313.934
313.739
313.591
313.592
313.752
313.458
313.263
312.972
312.882
309.916
310.097
310.488
310.48
310.623
310.901
310.678
310.82
311.059
310.862
310.968
310.824
310.726
310.593
310.586
310.696
310.497
310.293
310.097
310.041
307.061
307.199
307.546
307.453
307.568
307.828
307.607
307.721
307.867
307.769
307.875
307.714
307.695
307.617
307.623
307.654
307.513
307.345
307.209
307.19
304.238
304.284
304.545
304.474
304.528
304.707
304.571
304.634
304.703
304.651
304.747
304.631
304.631
304.567
304.602
304.611
304.479
304.439
304.313
304.317
301.424
301.427
301.539
301.494
301.516
301.579
301.537
301.535
301.563
301.555
301.6
301.56
301.579
301.534
301.565
301.545
301.502
301.501
301.437
301.439
322.362
322.48
322.989
323.454
323.728
324.049
324.151
324.143
324.564
324.465
324.326
324.438
324.29
324.029
324.053
323.837
323.606
323.214
322.701
322.234
319.429
319.486
319.936
320.344
320.59
320.867
320.957
320.899
321.353
321.23
321.149
321.179
321.071
320.85
320.888
320.686
320.542
320.154
319.683
319.327
316.456
316.51
316.908
317.235
317.42
317.699
317.726
317.654
318.105
317.994
317.955
317.912
317.816
317.668
317.641
317.482
317.419
317.08
316.673
316.398
313.489
313.566
313.904
314.131
314.27
314.537
314.498
314.449
314.845
314.725
314.732
314.626
314.58
314.469
314.414
314.295
314.293
313.95
313.655
313.437
310.488
310.58
310.866
310.982
311.127
311.346
311.287
311.256
311.576
311.48
311.486
311.361
311.364
311.23
311.192
311.155
311.13
310.832
310.651
310.482
307.508
307.59
307.771
307.827
307.962
308.133
308.055
308.053
308.302
308.186
308.194
308.094
308.152
308.045
307.976
308.001
307.954
307.726
307.626
307.494
304.529
304.545
304.667
304.705
304.785
304.901
304.83
304.832
305.011
304.896
304.909
304.876
304.884
304.857
304.776
304.797
304.758
304.64
304.604
304.507
301.508
301.524
301.581
301.582
301.582
301.647
301.609
301.617
301.688
301.646
301.663
301.65
301.644
301.65
301.593
301.61
301.598
301.548
301.539
301.52
323.356
323.716
323.982
324.569
324.917
325.143
325.202
325.467
325.797
325.665
325.474
325.615
325.467
325.528
325.071
324.857
324.798
324.24
323.703
323.4
320.326
320.613
320.822
321.31
321.641
321.835
321.88
322.074
322.362
322.278
322.067
322.225
322.065
322.171
321.753
321.569
321.529
321.054
320.612
320.283
317.227
317.473
317.688
318.051
318.357
318.502
318.471
318.693
318.93
318.875
318.671
318.842
318.688
318.821
318.427
318.282
318.29
317.839
317.497
317.185
314.094
314.298
314.507
314.795
315.026
315.137
315.092
315.347
315.481
315.425
315.278
315.4
315.284
315.386
315.101
314.986
315.02
314.636
314.364
314.131
310.976
311.095
311.295
311.55
311.674
311.747
311.773
311.954
312.051
311.987
311.902
311.968
311.918
311.96
311.758
311.728
311.674
311.378
311.21
311.008
307.831
307.934
308.06
308.296
308.33
308.369
308.437
308.49
308.64
308.538
308.507
308.54
308.565
308.578
308.414
308.405
308.352
308.113
308.007
307.885
304.688
304.782
304.853
304.989
304.988
304.991
305.089
305.081
305.207
305.079
305.112
305.098
305.186
305.186
305.049
305.079
305.009
304.833
304.816
304.725
301.564
301.599
301.619
301.674
301.67
301.655
301.709
301.713
301.766
301.706
301.7
301.687
301.743
301.736
301.688
301.709
301.688
301.6
301.622
301.587
324.235
324.579
325.186
325.603
325.989
326.272
326.523
326.723
326.946
327.037
326.77
326.749
326.658
326.709
326.475
326.115
325.748
325.289
324.928
324.456
321.027
321.292
321.885
322.171
322.553
322.772
322.989
323.195
323.392
323.446
323.244
323.193
323.141
323.19
322.941
322.653
322.372
321.915
321.672
321.181
317.806
318.003
318.564
318.753
319.107
319.27
319.42
319.678
319.82
319.843
319.693
319.646
319.598
319.628
319.408
319.208
319.013
318.568
318.38
317.952
314.577
314.718
315.224
315.356
315.648
315.77
315.855
316.075
316.238
316.241
316.115
316.051
316.055
316.031
315.9
315.748
315.595
315.212
315.049
314.708
311.344
311.469
311.866
311.975
312.181
312.26
312.331
312.508
312.645
312.588
312.562
312.497
312.495
312.467
312.368
312.306
312.126
311.833
311.666
311.371
308.122
308.179
308.499
308.605
308.76
308.743
308.812
308.947
309.066
308.979
309.008
308.914
308.913
308.945
308.833
308.792
308.696
308.448
308.314
308.077
304.894
304.912
305.105
305.184
305.251
305.224
305.275
305.367
305.471
305.367
305.433
305.373
305.367
305.399
305.31
305.328
305.245
305.05
304.991
304.832
301.636
301.643
301.7
301.733
301.786
301.745
301.779
301.809
301.827
301.797
301.828
301.806
301.792
301.809
301.782
301.786
301.775
301.696
301.67
301.613
325.065
325.534
326.147
326.544
327.208
327.306
327.458
327.793
327.932
328.286
328.011
327.94
328.054
327.629
327.477
327.257
326.786
326.524
325.788
325.378
321.761
322.191
322.673
323.07
323.657
323.674
323.831
324.119
324.181
324.499
324.281
324.244
324.352
324.01
323.861
323.68
323.221
323.009
322.33
322
318.413
318.837
319.244
319.555
320.049
320.023
320.142
320.411
320.423
320.7
320.523
320.482
320.643
320.338
320.251
320.064
319.664
319.435
318.906
318.626
315.082
315.452
315.743
316.035
316.406
316.396
316.46
316.73
316.709
316.929
316.774
316.75
316.889
316.684
316.603
316.442
316.078
315.871
315.497
315.263
311.754
312.038
312.274
312.494
312.776
312.741
312.811
313.05
312.983
313.153
313.07
313.049
313.147
312.996
312.932
312.827
312.532
312.374
312.048
311.862
308.425
308.576
308.745
308.94
309.15
309.087
309.187
309.326
309.242
309.382
309.355
309.379
309.399
309.307
309.255
309.186
308.948
308.803
308.562
308.486
305.089
305.168
305.236
305.364
305.503
305.464
305.539
305.614
305.528
305.653
305.607
305.665
305.66
305.635
305.574
305.552
305.387
305.265
305.157
305.112
301.713
301.735
301.752
301.791
301.833
301.835
301.874
301.88
301.843
301.898
301.888
301.908
301.892
301.901
301.86
301.849
301.818
301.771
301.713
301.701
326.069
326.439
327.084
327.44
328.166
328.47
328.499
328.796
329.232
329.382
329.078
329.227
329.097
328.66
328.64
328.335
327.856
327.543
326.935
326.346
322.629
322.932
323.518
323.776
324.432
324.729
324.738
325.02
325.337
325.503
325.212
325.368
325.256
324.863
324.849
324.613
324.167
323.855
323.347
322.844
319.171
319.426
319.93
320.114
320.675
320.964
320.943
321.24
321.419
321.616
321.302
321.483
321.423
321.089
321.033
320.848
320.475
320.169
319.764
319.376
315.683
315.906
316.335
316.449
316.906
317.208
317.135
317.376
317.528
317.731
317.44
317.595
317.518
317.269
317.262
317.068
316.782
316.509
316.233
315.888
312.176
312.432
312.744
312.842
313.17
313.4
313.293
313.556
313.629
313.831
313.558
313.691
313.592
313.396
313.462
313.297
313.023
312.839
312.655
312.357
308.697
308.907
309.11
309.17
309.479
309.56
309.488
309.731
309.71
309.895
309.691
309.784
309.705
309.55
309.645
309.485
309.294
309.144
309.076
308.833
305.208
305.328
305.44
305.478
305.739
305.735
305.681
305.86
305.796
305.912
305.788
305.869
305.822
305.701
305.792
305.713
305.557
305.465
305.486
305.306
301.747
301.77
301.835
301.839
301.948
301.91
301.907
301.983
301.934
301.991
301.94
301.959
301.953
301.903
301.946
301.923
301.883
301.822
301.842
301.761
327.07
327.43
328.088
328.431
329.144
329.318
329.544
329.789
330.132
330.266
330.134
330.206
330.28
329.864
329.619
329.185
328.791
328.547
328.082
327.496
323.496
323.795
324.407
324.67
325.316
325.446
325.611
325.853
326.162
326.255
326.137
326.23
326.264
325.886
325.724
325.277
324.932
324.761
324.333
323.813
319.909
320.158
320.688
320.876
321.464
321.569
321.675
321.908
322.131
322.216
322.149
322.222
322.25
321.911
321.769
321.365
321.072
320.978
320.597
320.134
316.315
316.517
316.933
317.119
317.622
317.661
317.776
317.911
318.12
318.218
318.171
318.237
318.213
317.95
317.807
317.43
317.201
317.181
316.898
316.474
312.703
312.83
313.184
313.316
313.754
313.758
313.863
313.902
314.085
314.189
314.157
314.212
314.182
313.965
313.832
313.537
313.321
313.369
313.136
312.803
309.067
309.172
309.418
309.522
309.87
309.799
309.893
309.904
310.009
310.113
310.112
310.186
310.135
309.984
309.885
309.691
309.531
309.523
309.395
309.118
305.461
305.506
305.62
305.705
305.929
305.863
305.927
305.95
305.985
306.067
306.046
306.121
306.106
305.974
305.916
305.828
305.747
305.685
305.651
305.448
301.847
301.846
301.888
301.899
301.98
301.976
301.991
301.993
302.012
302.026
302.034
302.06
302.043
302.004
301.996
301.956
301.941
301.899
301.89
301.79
327.92
328.356
328.819
329.43
329.912
330.282
330.635
330.727
330.998
331.22
331.294
331.17
331.302
330.982
330.839
330.342
329.829
329.463
329.162
328.669
324.247
324.567
324.989
325.537
325.96
326.294
326.512
326.637
326.9
327.104
327.16
327.061
327.167
326.848
326.753
326.328
325.837
325.529
325.319
324.877
320.515
320.791
321.141
321.65
322.026
322.234
322.406
322.517
322.814
322.962
323.013
322.921
323.044
322.683
322.692
322.33
321.905
321.585
321.457
321.066
316.774
316.969
317.319
317.702
318.072
318.189
318.343
318.418
318.659
318.829
318.833
318.771
318.895
318.536
318.572
318.321
317.958
317.662
317.58
317.251
313.068
313.169
313.485
313.789
314.069
314.153
314.315
314.339
314.522
314.663
314.7
314.597
314.719
314.418
314.43
314.235
313.981
313.742
313.703
313.388
309.344
309.399
309.664
309.882
310.042
310.109
310.226
310.248
310.343
310.456
310.518
310.457
310.532
310.316
310.284
310.183
309.985
309.801
309.753
309.589
305.587
305.633
305.81
305.958
306.01
306.096
306.184
306.131
306.198
306.299
306.325
306.292
306.328
306.176
306.158
306.104
306.003
305.881
305.824
305.774
301.887
301.884
301.951
301.985
302.015
302.051
302.095
302.046
302.056
302.111
302.121
302.116
302.107
302.071
302.054
302.037
302.015
301.973
301.952
301.937
328.446
329.127
329.816
330.264
330.814
331.264
331.417
331.718
332.101
332.158
332.214
332.027
332.176
331.937
331.727
331.372
330.988
330.427
329.911
329.606
324.687
325.259
325.849
326.282
326.699
327.089
327.244
327.517
327.823
327.916
327.911
327.78
327.878
327.717
327.51
327.221
326.868
326.381
325.975
325.681
320.895
321.404
321.887
322.314
322.585
322.935
323.052
323.331
323.566
323.642
323.614
323.49
323.566
323.473
323.312
323.003
322.714
322.317
322.034
321.766
317.095
317.501
317.934
318.296
318.458
318.789
318.891
319.134
319.313
319.335
319.281
319.216
319.308
319.165
319.068
318.794
318.527
318.229
318.087
317.782
313.27
313.594
313.962
314.236
314.348
314.605
314.726
314.905
315.029
315.087
315.013
314.951
315.076
314.901
314.825
314.618
314.435
314.188
314.11
313.818
309.448
309.718
309.993
310.206
310.23
310.455
310.514
310.636
310.74
310.801
310.75
310.66
310.8
310.619
310.577
310.454
310.342
310.163
310.111
309.855
305.657
305.852
305.988
306.13
306.131
306.302
306.323
306.403
306.43
306.463
306.482
306.395
306.495
306.344
306.376
306.3
306.25
306.111
306.069
305.905
301.877
301.981
302.011
302.051
302.051
302.103
302.143
302.139
302.16
302.156
302.172
302.142
302.156
302.121
302.144
302.093
302.102
302.06
302.047
301.97
329.183
329.84
330.552
331.236
331.548
331.889
332.134
332.61
332.928
332.861
332.89
332.867
333.012
332.761
332.555
332.248
332.002
331.301
330.707
330.412
325.308
325.823
326.537
327.124
327.374
327.663
327.877
328.237
328.553
328.504
328.515
328.472
328.671
328.458
328.204
327.938
327.772
327.133
326.648
326.392
321.416
321.802
322.494
322.975
323.204
323.436
323.551
323.933
324.171
324.14
324.138
324.064
324.291
324.137
323.824
323.654
323.569
322.976
322.594
322.354
317.496
317.797
318.404
318.794
318.979
319.198
319.258
319.59
319.792
319.751
319.742
319.696
319.894
319.797
319.506
319.338
319.301
318.839
318.521
318.348
313.57
313.858
314.283
314.628
314.768
314.995
314.976
315.255
315.409
315.377
315.408
315.305
315.499
315.398
315.204
315.014
315.029
314.687
314.449
314.286
309.715
309.91
310.199
310.45
310.565
310.764
310.742
310.899
311.009
311.001
311.058
310.941
311.111
311.027
310.869
310.701
310.754
310.496
310.32
310.217
305.854
305.969
306.126
306.268
306.331
306.493
306.466
306.55
306.619
306.628
306.65
306.579
306.696
306.641
306.526
306.414
306.475
306.313
306.171
306.132
301.959
301.989
302.063
302.097
302.107
302.178
302.159
302.178
302.224
302.213
302.216
302.203
302.275
302.217
302.193
302.142
302.189
302.103
302.074
302.057
329.62
330.212
331.134
331.797
332.243
332.648
332.946
333.523
333.522
333.655
333.819
333.873
333.894
333.634
333.435
333.077
332.97
332.09
331.522
331.247
325.666
326.21
327.018
327.579
327.991
328.277
328.562
329.042
329.042
329.246
329.318
329.39
329.411
329.187
328.969
328.748
328.632
327.853
327.327
327.124
321.794
322.205
322.923
323.352
323.703
323.948
324.17
324.564
324.562
324.769
324.836
324.861
324.902
324.734
324.521
324.43
324.237
323.636
323.142
322.953
317.867
318.216
318.796
319.111
319.371
319.601
319.817
320.101
320.086
320.277
320.341
320.383
320.397
320.24
320.105
319.996
319.845
319.37
318.938
318.798
313.924
314.169
314.643
314.897
315.061
315.288
315.43
315.653
315.597
315.776
315.82
315.892
315.894
315.727
315.65
315.595
315.463
315.093
314.718
314.632
309.978
310.11
310.463
310.665
310.775
310.962
311.049
311.217
311.142
311.232
311.287
311.386
311.352
311.247
311.227
311.164
311.082
310.82
310.521
310.479
306.011
306.056
306.28
306.42
306.477
306.565
306.596
306.745
306.699
306.744
306.755
306.841
306.817
306.755
306.738
306.722
306.694
306.515
306.311
306.289
301.997
302.034
302.09
302.152
302.17
302.211
302.236
302.252
302.217
302.254
302.262
302.295
302.282
302.264
302.264
302.245
302.244
302.209
302.122
302.104
330.348
330.836
331.731
332.476
333.006
333.343
333.94
334.303
334.436
334.362
334.7
334.721
334.661
334.461
334.124
333.851
333.626
332.798
332.168
331.729
326.286
326.701
327.512
328.147
328.661
328.931
329.437
329.754
329.876
329.83
330.129
330.15
330.077
329.876
329.577
329.375
329.166
328.482
327.882
327.515
322.299
322.577
323.307
323.856
324.276
324.503
324.896
325.187
325.286
325.291
325.52
325.524
325.485
325.285
325.023
324.865
324.712
324.13
323.601
323.304
318.3
318.461
319.054
319.547
319.847
320.078
320.328
320.59
320.697
320.7
320.939
320.889
320.875
320.7
320.455
320.358
320.242
319.764
319.277
319.086
314.258
314.327
314.816
315.237
315.413
315.618
315.807
315.996
316.104
316.142
316.304
316.253
316.232
316.109
315.896
315.869
315.761
315.4
314.985
314.86
310.183
310.197
310.566
310.926
311.012
311.153
311.287
311.441
311.486
311.558
311.649
311.616
311.593
311.474
311.353
311.377
311.291
311.013
310.732
310.648
306.116
306.106
306.317
306.581
306.618
306.704
306.797
306.884
306.895
306.962
306.96
306.975
306.993
306.881
306.817
306.846
306.783
306.624
306.485
306.404
302.042
302.037
302.11
302.206
302.223
302.251
302.29
302.328
302.316
302.364
302.347
302.348
302.363
302.302
302.293
302.304
302.282
302.213
302.178
302.141
330.863
331.456
332.339
332.983
333.687
334.082
334.599
334.74
335.044
335.164
335.499
335.497
335.404
335.242
334.788
334.669
334.135
333.493
332.848
332.262
326.807
327.264
328.033
328.616
329.215
329.573
330.027
330.135
330.365
330.46
330.822
330.798
330.7
330.548
330.156
330.058
329.601
328.99
328.472
327.995
322.73
323.064
323.703
324.251
324.759
325.054
325.483
325.489
325.757
325.832
326.108
326.084
326
325.871
325.493
325.461
325.076
324.519
324.09
323.718
318.598
318.81
319.398
319.848
320.285
320.526
320.839
320.873
321.122
321.173
321.398
321.337
321.277
321.191
320.847
320.887
320.54
320.069
319.705
319.413
314.491
314.577
315.103
315.422
315.815
316.019
316.19
316.278
316.433
316.489
316.665
316.591
316.564
316.488
316.199
316.314
316.027
315.597
315.317
315.1
310.369
310.417
310.787
311.024
311.312
311.479
311.609
311.628
311.726
311.778
311.938
311.865
311.849
311.799
311.574
311.713
311.455
311.157
310.924
310.804
306.232
306.253
306.507
306.616
306.792
306.947
306.971
306.978
307.055
307.085
307.173
307.111
307.113
307.11
306.94
307.062
306.864
306.716
306.542
306.469
302.089
302.086
302.192
302.209
302.289
302.336
302.336
302.345
302.365
302.377
302.405
302.395
302.373
302.399
302.321
302.358
302.271
302.249
302.191
302.154
331.455
331.927
332.701
333.174
334.043
334.497
335.15
335.283
335.652
335.728
336.096
336.241
335.799
335.683
335.293
335.145
334.732
333.922
333.227
332.923
327.297
327.672
328.366
328.777
329.567
329.967
330.541
330.579
330.923
330.98
331.36
331.446
331.008
330.938
330.606
330.533
330.127
329.363
328.778
328.537
323.159
323.429
324.069
324.364
325.025
325.464
325.895
325.858
326.21
326.288
326.579
326.626
326.204
326.182
325.896
325.877
325.508
324.836
324.378
324.177
318.979
319.145
319.731
319.936
320.463
320.899
321.225
321.179
321.441
321.528
321.757
321.78
321.437
321.436
321.213
321.215
320.864
320.346
319.982
319.808
314.793
314.905
315.354
315.488
315.949
316.252
316.531
316.505
316.637
316.732
316.937
316.912
316.686
316.721
316.568
316.482
316.191
315.845
315.527
315.403
310.582
310.65
310.963
311.098
311.417
311.585
311.789
311.795
311.864
311.899
312.115
312.07
311.931
311.946
311.848
311.822
311.552
311.324
311.076
311.002
306.396
306.364
306.554
306.665
306.864
306.953
307.054
307.059
307.135
307.132
307.259
307.246
307.161
307.184
307.084
307.157
306.938
306.809
306.658
306.586
302.142
302.129
302.161
302.232
302.291
302.341
302.361
302.361
302.406
302.385
302.426
302.408
302.393
302.416
302.357
302.408
302.333
302.279
302.215
302.2
331.784
332.314
333.111
333.45
334.339
334.923
335.547
335.637
336.045
336.282
336.54
336.369
336.091
336.136
335.466
335.731
335.197
334.394
333.934
333.389
327.551
328.016
328.71
328.995
329.763
330.298
330.842
330.877
331.225
331.474
331.698
331.52
331.251
331.347
330.703
330.965
330.543
329.817
329.381
328.963
323.351
323.68
324.295
324.528
325.183
325.66
326.167
326.142
326.408
326.655
326.765
326.688
326.42
326.553
325.937
326.181
325.853
325.244
324.856
324.526
319.115
319.325
319.939
320.095
320.618
321.064
321.447
321.41
321.646
321.827
321.906
321.801
321.581
321.713
321.197
321.384
321.164
320.658
320.334
320.085
314.878
314.996
315.565
315.617
316.054
316.413
316.709
316.639
316.816
316.994
317.022
316.907
316.751
316.935
316.439
316.579
316.471
316.134
315.772
315.653
310.659
310.69
311.143
311.172
311.471
311.706
311.97
311.902
312.034
312.097
312.13
312.084
311.978
312.087
311.723
311.846
311.783
311.551
311.284
311.222
306.427
306.428
306.679
306.718
306.916
307.011
307.232
307.151
307.211
307.248
307.27
307.273
307.183
307.254
307.055
307.119
307.075
306.938
306.775
306.731
302.158
302.149
302.255
302.248
302.325
302.351
302.452
302.405
302.409
302.438
302.442
302.431
302.392
302.448
302.377
302.381
302.368
302.361
302.265
302.252
)
;

boundaryField
{
    hotSide
    {
        type            fixedGradient;
        gradient        nonuniform List<scalar> 
400
(
169.444
180.262
191.12
201.971
212.765
223.452
233.981
244.3
254.357
264.102
273.485
282.457
290.972
298.984
306.453
313.338
319.604
325.219
330.155
334.387
172.042
183.224
194.456
205.685
216.863
227.936
238.851
249.555
259.994
270.117
279.87
289.204
298.069
306.42
314.212
321.405
327.961
333.847
339.033
343.494
174.221
185.746
197.326
208.911
220.449
231.884
243.163
254.231
265.031
275.51
285.614
295.291
304.489
313.161
321.261
328.748
335.582
341.728
347.155
351.836
175.999
187.839
199.743
211.657
223.529
235.301
246.919
258.325
269.462
280.275
290.706
300.703
310.214
319.188
327.578
335.342
342.437
348.829
354.484
359.376
177.392
189.52
201.719
213.935
226.112
238.194
250.122
261.839
273.286
284.405
295.139
305.432
315.231
324.484
333.144
341.164
348.503
355.124
360.993
366.082
178.423
190.809
203.272
215.758
228.21
240.57
252.779
264.776
276.503
287.899
298.907
309.469
319.53
329.038
337.942
346.197
353.759
360.59
366.655
371.925
179.112
191.723
204.419
217.142
229.836
242.441
254.897
267.142
279.116
290.758
302.009
312.809
323.104
332.838
341.961
350.426
358.188
365.207
371.449
376.883
179.48
192.283
205.176
218.103
231.003
243.818
256.485
268.943
281.13
292.984
304.444
315.45
325.947
335.877
345.19
353.837
361.773
368.958
375.355
380.933
179.546
192.505
205.56
218.652
231.722
244.709
257.551
270.185
282.548
294.577
306.21
317.389
328.053
338.148
347.62
356.42
364.503
371.826
378.354
384.055
179.324
192.404
205.582
218.802
232.002
245.123
258.1
270.871
283.371
295.537
307.307
318.621
329.418
339.642
349.24
358.163
366.363
373.798
380.432
386.232
178.829
191.989
205.252
218.56
231.851
245.065
258.137
271.004
283.601
295.864
307.732
319.142
330.035
340.353
350.043
359.055
367.341
374.86
381.573
387.447
178.067
191.27
204.577
217.932
231.273
244.537
257.662
270.583
283.236
295.556
307.48
318.947
329.897
340.273
350.019
359.087
367.427
374.998
381.763
387.687
177.043
190.247
203.559
216.919
230.266
243.539
256.674
269.607
282.272
294.607
306.547
318.031
328.999
339.393
349.16
358.248
366.61
374.203
380.99
386.938
175.757
188.922
202.195
215.518
228.83
242.068
255.17
268.07
280.706
293.012
304.926
316.386
327.332
337.707
347.456
356.53
364.88
372.465
379.245
385.189
174.203
187.288
200.482
213.725
226.957
240.117
253.142
265.967
278.53
290.765
302.61
314.005
324.889
335.206
344.901
353.925
362.23
369.775
376.521
382.435
172.374
185.339
198.411
211.532
224.642
237.681
250.585
263.292
275.737
287.859
299.594
310.883
321.665
331.886
341.491
350.43
358.657
366.13
372.812
378.671
170.26
183.064
195.973
208.93
221.876
234.75
247.491
260.036
272.323
284.289
295.873
307.015
317.658
327.744
337.222
346.043
354.16
361.532
368.122
373.899
167.85
180.453
193.159
205.91
218.65
231.318
243.853
256.195
268.282
280.052
291.445
302.402
312.866
322.782
332.098
340.767
348.742
355.984
362.457
368.127
165.132
177.496
189.958
202.464
214.957
227.378
239.668
251.766
263.613
275.147
286.31
297.045
307.294
317.005
326.127
334.612
342.417
349.501
355.829
361.371
162.095
174.182
186.363
198.586
210.793
222.929
234.934
246.751
258.319
269.58
280.477
290.953
300.954
310.427
319.322
327.594
335.2
342.101
348.262
353.653
)
;
    }
    coldSide
    {
        type            mixed;
        refValue        uniform 300;
        refGradient     uniform 0;
        valueFraction   uniform 0.991591;
        source          uniform 0;
        value           nonuniform List<scalar> 
400
(
300.01
300.01
300.011
300.011
300.011
300.012
300.013
300.013
300.014
300.014
300.015
300.016
300.016
300.016
300.016
300.017
300.017
300.018
300.018
300.018
300.01
300.01
300.011
300.011
300.012
300.012
300.013
300.013
300.014
300.015
300.015
300.016
300.016
300.017
300.017
300.017
300.017
300.018