/*--------------------------------*- C++ -*----------------------------------*\
| =========                 |                                                 |
| \\      /  F ield         | OpenFOAM: The Open Source CFD Toolbox           |
|  \\    /   O peration     | Version:  2212                                  |
|   \\  /    A nd           | Website:  www.openfoam.com                      |
|    \\/     M anipulation  |                                                 |
\*---------------------------------------------------------------------------*/
FoamFile
{
    version     2.0;
    format      ascii;
    arch        "LSB;label=32;scalar=64";
    class       volScalarField;
    location    "0";
    object      T;
}
// * * * * * * * * * * * * * * * * * * * * * * * * * * * * * * * * * * * * * //

dimensions      [0 0 0 1 0 0 0];

internalField   nonuniform List<scalar> 
3200
(
346.861
345.898
345.381
345.441
345.856
346.574
347.425
348.302
349.053
349.355
349.706
349.514
349.023
348.238
347.325
346.335
345.811
345.574
345.96
346.922
340.765
339.954
339.514
339.569
339.91
340.486
341.239
341.988
342.631
342.894
343.186
342.98
342.538
341.87
341.054
340.194
339.727
339.487
339.817
340.613
334.575
333.922
333.547
333.593
333.894
334.364
334.991
335.625
336.144
336.355
336.6
336.425
336.041
335.477
334.788
334.048
333.63
333.406
333.697
334.333
328.35
327.835
327.529
327.572
327.818
328.186
328.688
329.239
329.635
329.796
329.985
329.843
329.511
329.044
328.481
327.887
327.528
327.339
327.554
328.09
322.075
321.692
321.44
321.499
321.697
321.967
322.356
322.793
323.098
323.195
323.342
323.238
322.992
322.598
322.169
321.712
321.405
321.284
321.437
321.842
315.784
315.519
315.344
315.369
315.538
315.692
315.998
316.309
316.541
316.574
316.687
316.617
316.455
316.164
315.853
315.528
315.289
315.208
315.339
315.605
309.498
309.339
309.228
309.25
309.348
309.413
309.603
309.798
309.954
309.965
310.024
309.981
309.906
309.716
309.52
309.335
309.185
309.129
309.215
309.359
303.187
303.136
303.093
303.104
303.133
303.154
303.212
303.277
303.342
303.338
303.369
303.344
303.314
303.26
303.205
303.138
303.083
303.057
303.089
303.132
346.732
345.755
345.366
345.52
345.861
346.657
347.674
348.489
349.401
349.77
350.186
349.937
349.351
348.502
347.534
346.685
345.99
345.652
345.977
346.796
340.635
339.865
339.49
339.609
339.892
340.574
341.46
342.151
342.923
343.236
343.589
343.361
342.827
342.064
341.216
340.499
339.89
339.6
339.846
340.51
334.478
333.851
333.522
333.621
333.86
334.43
335.202
335.734
336.416
336.645
336.953
336.722
336.29
335.623
334.892
334.304
333.775
333.521
333.721
334.235
328.276
327.767
327.499
327.562
327.757
328.24
328.862
329.298
329.861
330.038
330.289
330.064
329.726
329.172
328.57
328.089
327.646
327.417
327.588
327.988
322.039
321.648
321.458
321.481
321.637
322.01
322.491
322.82
323.278
323.384
323.576
323.391
323.141
322.701
322.226
321.841
321.5
321.321
321.467
321.778
315.761
315.492
315.371
315.383
315.504
315.738
316.077
316.316
316.635
316.714
316.843
316.716
316.527
316.233
315.861
315.605
315.349
315.228
315.356
315.565
309.467
309.314
309.251
309.254
309.342
309.459
309.664
309.804
309.994
310.029
310.104
310.031
309.928
309.752
309.518
309.372
309.219
309.152
309.229
309.347
303.17
303.125
303.095
303.097
303.121
303.169
303.226
303.293
303.348
303.359
303.394
303.367
303.331
303.266
303.188
303.141
303.095
303.072
303.095
303.131
346.739
345.966
345.529
345.693
346.171
347.012
348.124
348.979
349.908
350.436
350.766
350.513
349.964
349.022
347.993
347.129
346.304
345.973
346.217
346.904
340.645
340.001
339.658
339.773
340.17
340.868
341.84
342.553
343.375
343.807
344.058
343.826
343.356
342.518
341.624
340.883
340.157
339.851
340.072
340.617
334.477
333.963
333.674
333.761
334.088
334.687
335.5
336.073
336.762
337.136
337.352
337.115
336.737
336.002
335.254
334.604
333.997
333.745
333.907
334.334
328.252
327.873
327.654
327.7
327.962
328.456
329.106
329.556
330.13
330.432
330.611
330.388
330.097
329.465
328.87
328.344
327.826
327.61
327.743
328.058
322.002
321.734
321.56
321.586
321.78
322.193
322.675
323.016
323.466
323.705
323.834
323.661
323.46
322.923
322.461
322.045
321.675
321.475
321.599
321.812
315.731
315.536
315.429
315.451
315.584
315.894
316.227
316.465
316.789
316.96
317.045
316.895
316.79
316.384
316.058
315.756
315.486
315.351
315.448
315.581
309.463
309.315
309.276
309.278
309.359
309.558
309.755
309.886
310.095
310.195
310.236
310.157
310.111
309.837
309.647
309.481
309.321
309.231
309.282
309.355
303.169
303.121
303.108
303.118
303.137
303.209
303.263
303.308
303.382
303.425
303.432
303.405
303.388
303.298
303.229
303.186
303.129
303.089
303.114
303.125
347.043
346.174
345.924
346.017
346.596
347.52
348.642
349.682
350.561
351.244
351.555
351.353
350.754
349.796
348.712
347.618
346.802
346.39
346.637
347.29
340.914
340.205
340.001
340.039
340.531
341.319
342.286
343.179
343.895
344.478
344.75
344.569
344.055
343.192
342.243
341.308
340.579
340.206
340.425
340.955
334.739
334.155
333.97
333.997
334.396
335.061
335.865
336.616
337.191
337.697
337.917
337.752
337.317
336.573
335.767
334.986
334.353
334.031
334.222
334.628
328.487
328.03
327.858
327.881
328.207
328.752
329.4
330.004
330.467
330.881
331.071
330.917
330.565
329.943
329.282
328.657
328.131
327.846
328.014
328.319
322.198
321.863
321.712
321.702
321.979
322.399
322.907
323.369
323.725
324.046
324.206
324.058
323.814
323.298
322.787
322.296
321.914
321.641
321.804
322.046
315.899
315.646
315.527
315.523
315.716
316.028
316.401
316.704
316.954
317.187
317.309
317.177
317.052
316.658
316.299
315.92
315.69
315.469
315.57
315.738
309.567
309.411
309.349
309.322
309.443
309.637
309.848
310.025
310.179
310.325
310.39
310.329
310.27
310.004
309.792
309.552
309.428
309.284
309.341
309.442
303.202
303.158
303.137
303.127
303.168
303.234
303.303
303.355
303.403
303.457
303.484
303.468
303.447
303.348
303.295
303.2
303.159
303.111
303.122
303.165
347.436
346.785
346.39
346.538
347.053
348.035
349.288
350.383
351.355
352.239
352.559
352.456
351.617
350.661
349.496
348.319
347.434
346.984
347.171
347.776
341.249
340.718
340.384
340.494
340.947
341.758
342.844
343.764
344.579
345.349
345.639
345.516
344.784
343.938
342.917
341.887
341.104
340.748
340.889
341.362
335.016
334.574
334.302
334.366
334.747
335.436
336.323
337.107
337.785
338.432
338.674
338.526
337.931
337.206
336.342
335.441
334.764
334.496
334.61
334.961
328.743
328.371
328.148
328.176
328.508
329.074
329.767
330.424
330.965
331.492
331.694
331.508
331.064
330.474
329.749
328.991
328.408
328.25
328.314
328.572
322.403
322.123
321.926
321.971
322.228
322.671
323.186
323.698
324.121
324.531
324.693
324.489
324.177
323.742
323.147
322.545
322.11
321.991
322.024
322.204
316.019
315.826
315.697
315.718
315.909
316.224
316.585
316.936
317.262
317.536
317.662
317.502
317.271
316.987
316.55
316.118
315.805
315.694
315.748
315.857
309.616
309.502
309.447
309.449
309.562
309.739
309.961
310.172
310.375
310.527
310.609
310.511
310.381
310.208
309.935
309.696
309.501
309.409
309.467
309.522
303.223
303.18
303.174
303.174
303.204
303.262
303.349
303.407
303.483
303.536
303.555
303.529
303.479
303.416
303.334
303.243
303.185
303.159
303.178
303.199
348.114
347.447
347.123
347.313
347.739
348.869
349.986
351.133
352.317
353.179
353.617
353.322
352.603
351.53
350.343
349.154
348.247
347.678
347.959
348.354
341.858
341.282
341.02
341.183
341.526
342.479
343.44
344.384
345.456
346.203
346.526
346.269
345.628
344.67
343.66
342.609
341.825
341.312
341.53
341.871
335.522
335.051
334.825
334.972
335.241
336.025
336.84
337.608
338.539
339.172
339.421
339.191
338.625
337.8
336.962
336.053
335.394
334.962
335.136
335.436
329.126
328.762
328.567
328.701
328.906
329.517
330.195
330.791
331.579
332.08
332.296
332.084
331.608
330.936
330.247
329.504
328.946
328.596
328.754
328.989
322.696
322.419
322.267
322.379
322.555
322.989
323.508
323.967
324.602
324.98
325.15
324.968
324.619
324.093
323.549
322.961
322.507
322.25
322.358
322.538
316.228
316.054
315.919
316.002
316.162
316.446
316.806
317.127
317.598
317.858
317.993
317.834
317.605
317.23
316.846
316.399
316.08
315.898
315.981
316.098
309.742
309.664
309.575
309.629
309.731
309.868
310.102
310.292
310.568
310.743
310.811
310.726
310.57
310.347
310.108
309.852
309.66
309.557
309.599
309.666
303.262
303.247
303.213
303.231
303.257
303.315
303.384
303.452
303.559
303.616
303.627
303.599
303.538
303.475
303.39
303.3
303.241
303.208
303.228
303.24
348.796
348.088
347.748
348.001
348.658
349.692
350.946
352.103
353.2
354.153
354.48
354.315
353.604
352.474
351.29
350.022
349.141
348.616
348.668
349.075
342.428
341.852
341.563
341.77
342.329
343.186
344.266
345.258
346.196
346.997
347.285
347.123
346.494
345.498
344.48
343.369
342.587
342.137
342.175
342.492
336.005
335.554
335.281
335.441
335.921
336.599
337.53
338.347
339.133
339.828
340.059
339.93
339.358
338.5
337.646
336.709
336.038
335.665
335.693
335.921
329.537
329.193
328.952
329.069
329.466
329.974
330.761
331.387
332.037
332.647
332.792
332.703
332.193
331.513
330.813
330.039
329.475
329.172
329.195
329.355
323.017
322.759
322.571
322.666
322.967
323.341
323.969
324.398
324.935
325.425
325.509
325.458
325.034
324.529
323.99
323.387
322.938
322.702
322.712
322.8
316.47
316.279
316.146
316.229
316.436
316.697
317.154
317.431
317.81
318.182
318.231
318.204
317.891
317.528
317.164
316.715
316.398
316.221
316.245
316.274
309.894
309.807
309.705
309.767
309.879
310.045
310.316
310.465
310.684
310.924
310.965
310.928
310.739
310.533
310.315
310.038
309.858
309.757
309.755
309.771
303.313
303.298
303.251
303.28
303.305
303.372
303.47
303.502
303.582
303.659
303.68
303.664
303.592
303.532
303.46
303.367
303.308
303.27
303.275
303.276
349.779
349.04
348.704
348.829
349.483
350.421
351.65
352.979
354.143
355.179
355.463
355.305
354.601
353.497
352.253
350.968
350.062
349.545
349.632
349.922
343.295
342.672
342.388
342.473
343.019
343.817
344.879
346.001
346.99
347.902
348.132
347.956
347.36
346.378
345.32
344.191
343.369
342.922
342.985
343.18
336.742
336.241
335.987
336.038
336.503
337.165
338.057
338.986
339.8
340.61
340.756
340.589
340.122
339.271
338.358
337.406
336.703
336.308
336.366
336.477
330.127
329.742
329.514
329.547
329.902
330.478
331.187
331.919
332.592
333.299
333.37
333.234
332.86
332.151
331.389
330.615
330.029
329.711
329.739
329.803
323.463
323.184
323.008
323.024
323.299
323.75
324.293
324.852
325.377
325.958
325.961
325.859
325.577
325.011
324.441
323.824
323.369
323.12
323.102
323.133
316.793
316.592
316.46
316.484
316.668
317.003
317.382
317.76
318.161
318.557
318.563
318.463
318.268
317.884
317.496
317.017
316.69
316.522
316.5
316.484
310.112
309.966
309.904
309.905
310.027
310.221
310.464
310.674
310.912
311.154
311.149
311.08
310.973
310.736
310.515
310.204
310.027
309.928
309.909
309.9
303.399
303.344
303.331
303.327
303.365
303.425
303.513
303.584
303.661
303.744
303.738
303.718
303.676
303.601
303.526
303.416
303.363
303.334
303.316
303.32
350.525
349.996
349.647
349.715
350.396
351.284
352.479
353.787
355.001
356.118
356.469
356.21
355.501
354.437
353.203
351.837
351.013
350.497
350.495
350.851
343.934
343.496
343.172
343.23
343.819
344.578
345.584
346.695
347.742
348.7
348.986
348.749
348.123
347.191
346.132
344.935
344.206
343.748
343.752
344.025
337.287
336.93
336.652
336.672
337.188
337.803
338.643
339.585
340.421
341.239
341.469
341.282
340.722
339.963
339.058
338.027
337.402
337.002
337.026
337.231
330.575
330.29
330.058
330.091
330.508
330.98
331.668
332.424
333.077
333.771
333.95
333.783
333.367
332.744
331.964
331.126
330.625
330.238
330.301
330.447
323.82
323.613
323.424
323.463
323.78
324.131
324.673
325.245
325.737
326.296
326.421
326.269
325.979
325.477
324.857
324.201
323.821
323.485
323.583
323.68
317.026
316.909
316.758
316.801
317.007
317.246
317.658
318.049
318.383
318.821
318.904
318.769
318.588
318.204
317.778
317.296
317.032
316.791
316.851
316.912
310.222
310.18
310.085
310.117
310.229
310.346
310.627
310.838
311.043
311.306
311.371
311.276
311.185
310.933
310.691
310.392
310.23
310.069
310.124
310.146
303.428
303.421
303.39
303.392
303.421
303.476
303.57
303.635
303.707
303.787
303.814
303.781
303.752
303.66
303.58
303.478
303.438
303.379
303.391
303.399
351.362
350.909
350.43
350.712
351.254
352.278
353.368
354.609
355.759
356.876
357.274
356.872
356.374
355.213
354.113
352.865
351.834
351.394
351.359
351.762
344.644
344.305
343.872
344.109
344.563
345.458
346.365
347.407
348.399
349.352
349.66
349.317
348.882
347.87
346.915
345.835
344.932
344.538
344.482
344.806
337.85
337.611
337.212
337.42
337.811
338.58
339.305
340.171
340.985
341.801
342.054
341.775
341.351
340.504
339.72
338.806
338.006
337.688
337.626
337.886
331.057
330.845
330.527
330.657
331.001
331.631
332.231
332.921
333.552
334.238
334.46
334.212
333.838
333.16
332.502
331.768
331.082
330.835
330.776
330.976
324.196
324.047
323.794
323.875
324.152
324.662
325.109
325.646
326.105
326.664
326.839
326.637
326.349
325.807
325.309
324.726
324.177
323.999
323.953
324.081
317.319
317.199
317.03
317.081
317.281
317.658
317.952
318.342
318.647
319.07
319.216
319.027
318.846
318.436
318.107
317.68
317.268
317.168
317.112
317.193
310.418
310.332
310.243
310.268
310.381
310.627
310.776
311.027
311.191
311.474
311.561
311.418
311.315
311.073
310.874
310.632
310.369
310.311
310.27
310.322
303.488
303.469
303.434
303.443
303.486
303.565
303.615
303.698
303.758
303.849
303.884
303.832
303.799
303.714
303.645
303.555
303.476
303.46
303.445
303.464
352.341
351.832
351.428
351.65
352.147
353.165
354.222
355.344
356.495
357.457
357.875
357.684
357.048
356.003
354.838
353.629
352.741
352.41
352.37
352.702
345.502
345.102
344.725
344.905
345.329
346.213
347.087
348.077
349.021
349.861
350.193
350.018
349.461
348.547
347.562
346.458
345.69
345.392
345.351
345.621
338.603
338.274
337.977
338.114
338.463
339.191
339.901
340.77
341.549
342.258
342.498
342.323
341.85
341.083
340.266
339.312
338.667
338.391
338.329
338.568
331.651
331.387
331.136
331.247
331.54
332.115
332.692
333.4
334.033
334.599
334.785
334.638
334.268
333.612
332.952
332.162
331.644
331.414
331.335
331.503
324.673
324.439
324.261
324.343
324.576
325.02
325.445
326.021
326.496
326.922
327.068
326.93
326.69
326.163
325.651
325.021
324.594
324.457
324.338
324.475
317.648
317.482
317.359
317.404
317.599
317.905
318.193
318.629
318.951
319.247
319.357
319.215
319.09
318.711
318.314
317.881
317.554
317.493
317.37
317.458
310.61
310.503
310.444
310.458
310.603
310.781
310.936
311.204
311.4
311.56
311.633
311.536
311.472
311.25
311.012
310.744
310.548
310.51
310.423
310.471
303.565
303.528
303.508
303.51
303.56
303.614
303.665
303.759
303.827
303.864
303.902
303.876
303.847
303.772
303.697
303.601
303.532
303.525
303.492
303.512
353.388
352.812
352.427
352.681
353.174
353.999
354.994
356.174
357.169
358.071
358.485
358.297
357.771
356.731
355.676
354.545
353.685
353.402
353.301
353.73
346.417
345.934
345.583
345.801
346.2
346.924
347.776
348.783
349.626
350.404
350.716
350.561
350.065
349.186
348.262
347.279
346.538
346.254
346.146
346.493
339.364
338.983
338.682
338.858
339.183
339.794
340.475
341.345
342.057
342.704
342.959
342.804
342.351
341.65
340.862
340.008
339.387
339.139
339.014
339.287
332.264
331.976
331.723
331.859
332.121
332.625
333.132
333.902
334.447
334.964
335.161
335.054
334.642
334.089
333.456
332.751
332.249
332.018
331.882
332.111
325.138
324.91
324.72
324.839
325.028
325.4
325.782
326.434
326.833
327.2
327.374
327.278
326.953
326.505
326.043
325.476
325.094
324.92
324.788
324.959
317.989
317.802
317.708
317.779
317.911
318.159
318.436
318.929
319.194
319.437
319.547
319.5
319.261
318.929
318.618
318.196
317.941
317.786
317.707
317.833
310.835
310.692
310.648
310.683
310.78
310.895
311.078
311.386
311.522
311.673
311.733
311.711
311.573
311.364
311.203
310.92
310.776
310.656
310.641
310.716
303.642
303.582
303.572
303.584
303.623
303.652
303.714
303.816
303.857
303.91
303.929
303.923
303.881
303.802
303.757
303.662
303.609
303.573
303.572
303.596
354.522
353.986
353.556
353.63
354.073
354.884
355.95
357.036
358.014
358.649
358.963
358.824
358.369
357.367
356.277
355.33
354.668
354.3
354.222
354.63
347.411
346.982
346.579
346.623
347.015
347.67
348.615
349.521
350.361
350.857
351.156
351.024
350.605
349.736
348.762
347.932
347.371
347.051
346.974
347.281
340.227
339.885
339.53
339.556
339.874
340.392
341.198
341.963
342.646
343.064
343.325
343.191
342.826
342.112
341.271
340.547
340.083
339.808
339.726
339.979
332.985
332.705
332.429
332.453
332.698
333.095
333.744
334.363
334.923
335.255
335.456
335.354
335.051
334.469
333.781
333.177
332.792
332.546
332.504
332.692
325.705
325.497
325.282
325.299
325.484
325.781
326.259
326.736
327.189
327.454
327.594
327.521
327.307
326.804
326.299
325.801
325.483
325.292
325.268
325.416
318.395
318.241
318.104
318.104
318.238
318.452
318.793
319.113
319.46
319.626
319.73
319.687
319.552
319.144
318.797
318.423
318.194
318.04
318.048
318.156
311.068
310.952
310.899
310.893
310.965
311.081
311.297
311.484
311.711
311.796
311.847
311.841
311.743
311.509
311.278
311.069
310.935
310.82
310.829
310.903
303.713
303.667
303.657
303.657
303.682
303.71
303.788
303.854
303.925
303.955
303.963
303.973
303.935
303.852
303.775
303.716
303.681
303.627
303.632
303.652
355.533
354.988
354.627
354.633
355.102
355.76
356.827
357.685
358.552
359.152
359.402
359.391
358.879
358.021
357.071
356.138
355.555
355.174
355.241
355.631
348.268
347.83
347.511
347.512
347.882
348.442
349.382
350.106
350.859
351.341
351.52
351.508
351.07
350.299
349.465
348.653
348.136
347.812
347.859
348.148
340.954
340.613
340.326
340.306
340.576
341.086
341.881
342.481
343.112
343.502
343.643
343.6
343.223
342.573
341.858
341.185
340.739
340.442
340.517
340.689
333.581
333.321
333.091
333.047
333.255
333.662
334.333
334.803
335.33
335.628
335.738
335.694
335.375
334.833
334.255
333.711
333.332
333.076
333.166
333.274
326.183
325.97
325.799
325.75
325.911
326.219
326.763
327.117
327.524
327.73
327.815
327.787
327.523
327.096
326.642
326.238
325.93
325.724
325.794
325.869
318.733
318.568
318.469
318.408
318.536
318.735
319.154
319.378
319.687
319.818
319.877
319.86
319.683
319.363
319.034
318.764
318.545
318.396
318.434
318.49
311.274
311.172
311.107
311.059
311.136
311.26
311.522
311.632
311.823
311.914
311.954
311.924
311.843
311.631
311.434
311.275
311.148
311.055
311.065
311.099
303.779
303.754
303.727
303.712
303.726
303.771
303.866
303.889
303.96
303.991
304.007
303.991
303.974
303.906
303.831
303.775
303.732
303.706
303.715
303.714
356.617
355.916
355.747
355.698
355.985
356.729
357.592
358.382
359.077
359.502
359.893
359.774
359.428
358.621
357.703
356.949
356.305
356.005
356.048
356.524
349.203
348.616
348.487
348.42
348.644
349.293
350.029
350.709
351.293
351.625
351.953
351.837
351.533
350.82
350.024
349.356
348.791
348.516
348.549
348.939
341.731
341.255
341.147
341.093
341.26
341.794
342.413
342.977
343.471
343.751
344.01
343.865
343.618
343.012
342.316
341.772
341.289
341.052
341.071
341.376
334.208
333.863
333.738
333.703
333.836
334.253
334.776
335.232
335.626
335.855
336.052
335.912
335.711
335.203
334.603
334.176
333.792
333.593
333.598
333.825
326.661
326.419
326.298
326.275
326.378
326.695
327.088
327.436
327.751
327.948
328.091
327.959
327.802
327.385
326.916
326.582
326.284
326.148
326.123
326.304
319.083
318.927
318.823
318.806
318.875
319.106
319.379
319.622
319.852
320.006
320.074
319.978
319.886
319.579
319.223
319.016
318.761
318.693
318.668
318.768
311.478
311.38
311.307
311.319
311.342
311.486
311.641
311.794
311.922
312.049
312.067
312.005
311.959
311.786
311.554
311.435
311.26
311.225
311.213
311.252
303.856
303.814
303.792
303.803
303.797
303.853
303.894
303.955
303.988
304.039
304.043
304.031
304.019
303.944
303.868
303.83
303.774
303.765
303.755
303.769
357.556
357.09
356.681
356.779
357.07
357.578
358.314
358.984
359.538
360.037
360.378
360.282
359.918
359.135
358.397
357.743
357.111
356.858
357.073
357.578
350.035
349.647
349.31
349.373
349.579
350.045
350.648
351.213
351.652
352.104
352.372
352.28
351.949
351.276
350.631
350.017
349.49
349.247
349.407
349.861
342.467
342.149
341.848
341.893
342.047
342.453
342.923
343.392
343.774
344.144
344.33
344.275
343.977
343.388
342.854
342.289
341.873
341.666
341.748
342.149
334.844
334.581
334.318
334.342
334.479
334.809
335.165
335.544
335.879
336.165
336.28
336.245
335.986
335.508
335.076
334.59
334.25
334.08
334.137
334.489
327.157
326.936
326.737
326.744
326.874
327.122
327.392
327.684
327.942
328.171
328.225
328.201
328.012
327.625
327.295
326.889
326.631
326.498
326.545
326.824
319.445
319.273
319.132
319.115
319.236
319.411
319.59
319.788
319.996
320.143
320.16
320.161
320.029
319.727
319.499
319.21
319.019
318.93
318.965
319.154
311.697
311.6
311.493
311.521
311.555
311.674
311.778
311.901
312.036
312.107
312.107
312.115
312.049
311.849
311.713
311.536
311.423
311.377
311.394
311.504
303.926
303.891
303.846
303.877
303.876
303.928
303.936
303.99
304.042
304.07
304.061
304.072
304.042
303.979
303.929
303.864
303.836
303.812
303.815
303.848
358.791
358.243
357.746
357.761
357.961
358.406
359.15
359.673
360.257
360.522
360.865
360.852
360.482
359.841
359.157
358.468
357.956
357.846
358.164
358.678
351.113
350.67
350.207
350.224
350.364
350.741
351.382
351.82
352.318
352.528
352.809
352.759
352.443
351.874
351.28
350.67
350.215
350.099
350.345
350.796
343.368
342.988
342.583
342.605
342.713
343.054
343.539
343.93
344.343
344.481
344.705
344.654
344.372
343.884
343.417
342.867
342.485
342.373
342.562
342.929
335.579
335.268
334.909
334.924
334.998
335.317
335.664
335.997
336.331
336.406
336.559
336.548
336.288
335.904
335.533
335.068
334.756
334.66
334.78
335.087
327.721
327.48
327.199
327.216
327.276
327.53
327.769
328.035
328.267
328.352
328.443
328.431
328.24
327.951
327.637
327.269
327.027
326.96
327.053
327.272
319.842
319.658
319.48
319.465
319.516
319.712
319.86
320.048
320.201
320.273
320.334
320.322
320.171
319.983
319.75
319.482
319.298
319.273
319.332
319.478
311.941
311.804
311.708
311.691
311.741
311.84
311.938
312.036
312.13
312.189
312.212
312.202
312.111
311.999
311.845
311.68
311.589
311.568
311.614
311.693
304.014
303.956
303.928
303.921
303.932
303.967
304.004
304.034
304.076
304.099
304.085
304.085
304.064
304.022
303.963
303.911
303.884
303.882
303.893
303.914
359.99
359.35
358.833
358.858
358.99
359.326
359.902
360.429
360.836
361.183
361.403
361.277
360.955
360.391
359.838
359.269
358.847
358.843
359.165
359.685
352.131
351.585
351.161
351.152
351.259
351.537
352.033
352.462
352.788
353.093
353.264
353.141
352.867
352.377
351.855
351.335
350.956
350.967
351.228
351.668
344.207
343.756
343.396
343.385
343.452
343.715
344.132
344.463
344.724
344.981
345.11
345.001
344.733
344.321
343.866
343.425
343.091
343.116
343.323
343.68
336.237
335.872
335.579
335.558
335.597
335.841
336.175
336.419
336.646
336.848
336.946
336.863
336.608
336.268
335.883
335.526
335.262
335.28
335.434
335.734
328.231
327.925
327.728
327.724
327.722
327.927
328.16
328.355
328.532
328.704
328.77
328.708
328.473
328.201
327.917
327.64
327.444
327.445
327.549
327.782
320.199
319.965
319.835
319.838
319.845
319.967
320.137
320.271
320.423
320.504
320.575
320.529
320.352
320.177
319.936
319.768
319.623
319.629
319.677
319.835
312.134
312.006
311.914
311.947
311.922
311.986
312.106
312.18
312.27
312.323
312.368
312.325
312.215
312.139
311.944
311.881
311.782
311.798
311.816
311.916
304.071
304.023
303.99
304.001
303.994
304.013
304.063
304.081
304.101
304.139
304.154
304.127
304.092
304.068
303.997
304
303.951
303.952
303.964
303.996
361.011
360.339
359.767
359.669
359.84
360.16
360.701
361.076
361.394
361.731
361.967
361.734
361.453
361.048
360.594
360.197
359.784
359.822
360.167
360.519
353.005
352.416
351.929
351.826
351.982
352.26
352.707
353.01
353.256
353.544
353.745
353.533
353.256
352.912
352.489
352.163
351.775
351.791
352.062
352.348
344.948
344.416
344.022
343.935
344.066
344.319
344.664
344.929
345.118
345.327
345.494
345.313
345.071
344.76
344.411
344.144
343.794
343.78
344.002
344.232
336.834
336.376
336.073
335.983
336.108
336.345
336.575
336.821
336.956
337.129
337.226
337.087
336.862
336.615
336.331
336.13
335.823
335.782
335.961
336.163
328.685
328.334
328.098
328.021
328.117
328.337
328.463
328.67
328.785
328.912
328.973
328.872
328.658
328.464
328.26
328.116
327.864
327.82
327.967
328.116
320.513
320.264
320.083
320.045
320.124
320.28
320.368
320.51
320.592
320.665
320.735
320.657
320.474
320.329
320.182
320.079
319.926
319.873
319.975
320.077
312.334
312.167
312.062
312.049
312.08
312.2
312.252
312.317
312.374
312.406
312.46
312.424
312.294
312.204
312.118
312.051
311.991
311.94
312.001
312.058
304.136
304.072
304.051
304.035
304.048
304.099
304.11
304.132
304.152
304.159
304.168
304.167
304.123
304.09
304.059
304.037
304.021
304
304.031
304.047
361.773
361.177
360.559
360.402
360.508
360.858
361.306
361.648
361.92
362.259
362.234
362.126
361.904
361.608
361.261
360.785
360.487
360.597
360.905
361.33
353.625
353.095
352.574
352.432
352.534
352.826
353.207
353.473
353.694
353.977
353.963
353.836
353.626
353.362
353.065
352.646
352.327
352.455
352.676
353.024
345.437
344.987
344.539
344.431
344.533
344.759
345.075
345.273
345.442
345.72
345.671
345.572
345.347
345.116
344.884
344.544
344.237
344.327
344.488
344.775
337.236
336.857
336.481
336.38
336.493
336.676
336.887
337.059
337.21
337.446
337.385
337.303
337.098
336.895
336.711
336.451
336.158
336.203
336.325
336.586
329.025
328.717
328.407
328.325
328.422
328.558
328.714
328.848
328.95
329.151
329.093
329.033
328.834
328.678
328.549
328.359
328.123
328.12
328.222
328.426
320.775
320.544
320.3
320.262
320.33
320.424
320.525
320.612
320.702
320.852
320.791
320.755
320.603
320.494
320.377
320.287
320.094
320.072
320.156
320.303
312.499
312.362
312.19
312.183
312.221
312.279
312.337
312.372
312.449
312.539
312.5
312.476
312.388
312.331
312.243
312.178
312.058
312.045
312.098
312.205
304.2
304.141
304.095
304.092
304.104
304.125
304.14
304.152
304.185
304.212
304.203
304.181
304.149
304.134
304.111
304.084
304.037
304.034
304.046
304.099
)
;

boundaryField
{
    hotSide
    {
        type            fixedGradient;
        gradient        nonuniform List<scalar> 
400
(
481.618
479.486
479.801
482.491
487.295
493.844
501.743
510.638
520.24
530.333
540.769
551.456
562.356
573.478
584.873
596.63
608.861
621.687
635.198
649.437
468.271
466.435
467.214
470.517
476.026
483.301
491.886
501.386
511.488
521.964
532.663
543.496
554.433
565.494
576.746
588.3
600.295
612.882
626.182
640.247
462.378
461.13
462.454
466.247
472.187
479.834
488.731
498.476
508.752
519.324
530.04
540.814
551.619
562.484
573.485
584.742
596.406
608.633
621.551
635.222
463.442
463.06
465.025
469.226
475.383
483.111
492.001
501.677
511.832
522.235
532.732
543.238
553.732
564.248
574.869
585.714
596.929
608.657
621.019
634.08
469.621
470.284
473.011
477.682
484.056
491.811
500.595
510.071
519.952
530.016
540.115
550.169
560.167
570.152
580.213
590.47
601.061
612.117
623.749
636.026
478.802
480.602
484.222
489.526
496.289
504.225
513.016
522.354
531.965
541.637
551.233
560.688
570.01
579.262
588.552
598.011
607.778
617.982
628.732
640.1
489.189
492.165
496.792
502.914
510.301
518.668
527.701
537.084
546.541
555.858
564.908
573.655
582.14
590.469
598.786
607.251
616.019
625.228
634.991
645.387
499.345
503.47
509.164
516.248
524.473
533.53
543.067
552.732
562.206
571.256
579.762
587.724
595.246
602.503
609.698
617.037
624.706
632.856
641.607
651.042
508.072
513.228
519.944
528.028
537.206
547.128
557.386
567.547
577.217
586.11
594.106
601.26
607.766
613.894
619.932
626.139
632.733
639.882
647.707
656.289
514.372
520.307
527.844
536.784
546.837
557.617
568.647
579.401
589.38
598.226
605.808
612.248
617.846
622.984
628.029
633.294
639.02
645.384
652.504
660.453
517.511
523.831
531.807
541.241
551.833
563.175
574.745
585.949
596.206
605.094
612.472
618.51
623.589
628.164
632.656
637.408
642.673
648.63
655.395
663.038
517.151
523.369
531.284
540.694
551.297
562.676
574.305
585.586
595.936
604.932
612.43
618.59
623.786
628.467
633.052
637.886
643.226
649.256
656.094
663.813
513.464
519.104
526.472
535.363
545.475
556.401
567.642
578.657
588.936
598.107
606.029
612.804
618.716
624.133
629.423
634.905
640.832
647.391
654.714
662.881
507.152
511.843
518.319
526.383
535.735
545.985
556.678
567.339
577.542
586.974
595.49
603.126
610.06
616.557
622.908
629.391
636.244
643.658
651.772
660.678
499.393
502.907
508.333
515.487
524.072
533.704
543.952
554.386
564.629
574.403
583.558
592.075
600.052
607.67
615.15
622.729
630.628
639.037
648.102
657.921
491.789
494.039
498.411
504.735
512.704
521.916
531.927
542.315
552.721
562.877
572.626
581.918
590.8
599.394
607.877
616.455
625.338
634.72
644.753
655.538
486.392
487.41
490.812
496.442
503.963
512.922
522.839
533.274
543.869
554.359
564.585
574.478
584.057
593.412
602.689
612.076
621.783
632.011
642.924
654.62
485.596
485.546
488.096
493.104
500.201
508.886
518.647
529.031
539.681
550.34
560.848
571.13
581.187
591.086
600.954
610.964
621.323
632.238
643.879
656.341
491.51
490.682
492.492
496.818
503.3
511.448
520.76
530.799
541.221
551.781
562.321
572.761
583.087
593.351
603.656
614.156
625.039
636.5
648.697
661.712
504.824
503.537
504.713
508.254
513.865
521.137
529.639
538.982
548.854
559.025
569.339
579.711
590.117
600.586
611.2
622.081
633.38
645.253
657.825
671.158
)
;
    }
    coldSide
    {
        type            mixed;
        refValue        uniform 300;
        refGradient     uniform 0;
        valueFraction   uniform 0.991591;
        source          uniform 0;
        value           nonuniform List<scalar> 
400
(
300.027
300.027
300.027
300.027
300.027
300.027
300.028
300.029
300.029
300.029
300.03
300.031
300.031
300.032
300.032
300.033
300.034
300.034
300.035
300.035
300.026
300.026
300.026
300.027
300.027
300.027
300.028
300.028
300.029
300.029
300.03
300.03
300.031
300.032
300.032