/*--------------------------------*- C++ -*----------------------------------*\
| =========                 |                                                 |
| \\      /  F ield         | OpenFOAM: The Open Source CFD Toolbox           |
|  \\    /   O peration     | Version:  2212                                  |
|   \\  /    A nd           | Website:  www.openfoam.com                      |
|    \\/     M anipulation  |                                                 |
\*---------------------------------------------------------------------------*/
FoamFile
{
    version     2.0;
    format      ascii;
    arch        "LSB;label=32;scalar=64";
    class       volScalarField;
    location    "./ITHACAoutput/true/3.3";
    object      error;
}
// * * * * * * * * * * * * * * * * * * * * * * * * * * * * * * * * * * * * * //

dimensions      [0 0 0 1 0 0 0];

internalField   nonuniform List<scalar> 
3200
(
1.34104
0.0883886
-1.05656
0.303691
3.54371
1.0831
6.69987
4.07879
4.40958
3.41784
3.18152
4.46104
2.16235
1.3277
1.83608
6.22648
-1.78157
3.36312
-3.31655
1.8759
2.37488
0.335563
0.35933
3.33294
3.67366
5.09819
4.20224
3.5122
1.00837
5.15364
2.61508
3.77799
6.10694
2.1316
3.28355
5.77877
0.189602
2.78537
2.11771
2.00939
-0.853165
2.29491
1.21782
0.113188
-0.107126
1.39133
5.82745
3.84853
3.85903
2.6251
5.51585
4.93083
6.67548
3.79425
2.8709
3.87642
-0.19569
1.26978
5.1283
2.35291
0.95129
-0.40824
0.49949
1.58577
3.23811
1.24668
2.95925
1.70287
5.11774
1.56434
1.41953
2.21374
2.22139
1.65676
-0.337163
3.06239
-1.81261
5.32232
1.02293
-0.198257
2.28023
-1.64217
0.0133636
3.28027
1.20866
0.879537
1.51993
1.74106
2.13982
5.57422
0.805312
0.0745932
2.03691
6.31348
-0.219214
-1.49463
0.608612
1.60842
4.61409
2.33323
-0.79179
2.32193
-3.16641
4.16871
3.83294
1.15811
0.124994
-0.0399702
2.52337
-1.10372
1.96942
0.732171
0.607411
0.644607
2.74496
2.37354
-2.06371
2.0967
1.7277
-0.971364
-0.723461
0.370936
4.55794
1.65085
0.60268
0.419768
-0.802659
0.260214
0.522397
-0.340412
-3.33599
-0.384463
2.74357
0.678386
4.56825
1.32285
-0.722949
-1.47852
0.145538
0.285609
-0.00127117
-0.667414
-1.05779
-0.381557
-0.24571
-0.951015
-0.771271
1.32763
-0.777901
-0.416407
0.996425
2.19585
3.65473
1.14297
-0.702307
0.136411
-0.58405
3.33175
0.805637
1.98555
1.61598
1.62767
0.644571
1.89551
2.48521
2.80774
5.00303
2.42514
2.50353
4.16173
-1.22318
5.64812
2.46554
5.07804
3.39712
5.73294
-0.580823
2.96346
1.39703
2.10963
-1.16558
0.365878
2.67235
-0.792674
0.809489
-0.251384
1.06765
0.28251
3.95192
0.469593
0.178735
2.87926
0.512624
2.31138
0.428527
3.41352
0.93755
-1.18166
0.0874296
0.851006
-1.86167
-2.40212
-2.55058
0.203479
2.90126
-0.825288
0.0625999
1.6791
1.60719
2.22798
1.06474
2.57838
0.238577
2.9413
1.97455
2.4044
-1.44846
2.96952
-0.437794
-1.15289
-0.728203
2.19146
1.02583
1.82712
1.53006
1.47104
0.166343
1.66495
1.28785
4.37742
2.27037
3.9787
-0.16197
0.566551
1.32625
-1.45059
1.68555
-0.769437
-2.09615
-1.7528
-1.44532
3.85186
-1.30109
-3.00374
2.52885
-1.34737
2.49815
4.41669
0.896228
1.15442
2.9913
2.65101
1.96813
3.40412
0.805216
1.25358
-0.464969
-2.62993
0.922439
-3.45522
-1.72916
0.227314
-0.448122
0.719561
-2.09499
1.05007
1.38579
0.608003
3.40235
3.29531
-0.417852
-2.40671
2.93306
3.3782
0.386971
3.57182
2.27829
-0.811729
1.13421
1.18278
-1.0111
1.93009
-1.79125
-1.9529
3.28998
-2.70491
-0.322024
-0.958755
1.68561
0.90691
-1.16343
2.95862
0.266497
0.0293448
-1.43427
1.6429
1.18998
2.0501
0.704692
2.54387
0.630247
0.37402
0.433204
-1.01751
0.376677
-1.58963
-2.03179
-1.49852
1.15607
1.93336
-0.378209
-2.54029
-0.189774
0.389981
-1.67626
1.9483
1.08034
2.35114
-0.914458
-0.279656
-2.52137
0.186252
-0.86698
-1.67232
-0.0619159
1.75059
2.03445
0.922281
3.53089
2.61622
1.10229
5.66767
1.84645
1.93075
1.40411
2.53061
0.335279
0.827307
0.936332
0.0513616
-1.64263
-1.51665
-1.66151
0.873645
4.39158
1.89777
-0.300706
1.63248
4.14056
4.28337
5.15824
1.31817
2.05053
-1.46071
1.85592
-0.979411
1.09824
2.13746
-0.0103119
-1.22462
2.3052
-1.56517
-1.24091
-0.776716
0.524751
3.74219
2.28561
4.73846
1.3176
2.45847
3.5811
5.35685
1.92136
0.221113
1.21246
-0.0610647
0.897961
-0.840238
2.97018
-0.331778
0.650356
0.212625
-0.665734
-2.26224
-2.71202
0.806204
-0.392402
2.63705
0.558108
0.868595
3.06013
2.49497
0.0819457
2.38535
3.97305
-1.98281
-2.97701
4.57482
2.31555
-1.27986
0.802978
1.71543
0.965194
0.0236056
-0.111783
3.78994
0.595651
1.18344
2.75931
4.63158
0.676166
-1.41515
-0.533087
-0.429344
3.86434
2.69151
-0.820172
1.50292
0.655654
-3.7614
-0.710817
0.366503
-1.27063
-4.58985
-0.232453
-0.0581987
-0.657292
-0.211242
1.37019
1.23861
0.244781
2.00847
2.22387
-0.176631
1.73377
0.808095
-2.16336
2.09604
0.0581457
1.63075
-3.05197
1.20958
0.47131
-0.685738
-1.24128
-2.59416
0.919218
0.611835
-1.25055
2.79949
-0.919109
-0.949254
0.140865
-0.226836
-1.4331
1.38181
-1.99118
-0.0384814
0.910185
-1.29072
1.45778
-2.21223
-0.197342
1.02193
-1.03898
0.0573413
0.350036
-3.96706
0.238967
-1.04091
1.76592
0.645246
2.00278
-0.411635
-1.48505
-0.350267
-0.512009
-1.98793
-0.890367
2.44609
-1.82202
-4.12795
-2.24434
-1.23779
-2.57725
2.08427
0.437131
-1.26975
2.72064
0.805222
1.21587
0.270667
-0.807109
0.340598
-1.27666
1.25834
1.72037
0.734302
-0.604938
-0.904994
-0.698699
0.998274
-0.659389
0.623964
-0.792312
0.293924
2.34523
-0.744496
0.956541
-0.100901
-0.191734
3.9452
-0.497388
1.80477
0.479981
0.949332
-0.977697
-0.777124
-0.733326
-0.970367
-2.8131
-5.30116
1.14237
-0.483876
-0.260534
3.10613
1.14236
-0.98365
-0.560686
-0.889694
-1.70777
1.76959
1.31774
3.34941
0.91969
-1.58827
-2.11567
1.56648
2.29601
3.10471
0.760766
-2.54312
0.183559
-2.00947
-0.0367942
-0.650039
-0.316867
-1.25978
0.241526
-2.21977
2.76809
2.65099
2.32585
4.40527
0.582161
3.4089
2.66921
2.86333
1.3813
1.85602
-0.886147
0.224099
-1.53887
0.541501
-1.00957
2.30142
2.42638
1.44029
-2.20269
3.81078
3.53661
1.10342
-0.898314
-0.378227
1.60365
-1.49598
1.61472
0.657661
-0.42175
-1.50127
1.19134
2.30301
-0.412465
-1.77112
-1.10384
0.340172
-3.44751
1.18313
0.841905
-0.995503
2.64864
0.805353
0.14792
2.38106
-2.7696
0.1302
-0.152304
1.6313
1.89806
-0.0267204
2.16669
0.648674
-1.26172
-1.07737
1.10781
1.12205
-0.477555
1.91037
-0.741106
0.296398
1.18728
-1.01576
1.7024
2.40367
0.420211
-1.29153
0.240345
-2.16636
-1.04249
0.551137
-0.00135357
-2.71995
0.311005
-0.13756
0.0681292
0.764119
0.463886
1.99799
-0.553126
-1.10689
1.45953
-1.71942
-0.422996
-0.509203
0.475411
-0.998366
-3.14448
3.19978
-0.819786
1.51165
-0.531556
-2.21284
-2.01567
1.07752
0.096262
-0.733965
0.745476
-0.718411
-0.109353
2.89145
1.84469
3.07889
2.41354
2.45993
1.062
-2.2538
-0.420784
0.803671
0.754322
-0.836652
-0.0975641
-0.934988
-2.401
-0.315203
-1.45748
-1.41385
-0.137161
-0.509938
0.183613
1.38891
1.84901
-0.938754
-0.409257
-0.549327
-1.11804
-2.5104
0.298336
-1.6977
-4.68737
0.542458
-0.510138
-1.16427
-0.361731
-1.77946
-0.392655
-0.918914
-1.15494
-0.130606
0.0482857
-1.17729
1.42378
-0.0160118
-1.85715
2.58676
0.487697
-1.87408
0.187922
-3.98644
-0.427283
0.0583803
-1.7122
0.432969
-1.79899
0.650539
-2.40494
-0.550641
-0.913291
0.595451
-1.48069
1.18388
-0.157824
-1.10681
0.9356
-0.971361
-2.24283
-0.581652
0.19303
-3.58794
-0.423551
-1.8374
0.134234
-0.532382
-3.85733
-0.648114
-1.54353
2.43164
0.859086
-1.1961
-1.44092
0.417969
0.324665
-0.888955
-0.720758
-2.1254
0.498698
0.633665
0.558402
0.610684
1.41467
1.01966
1.18027
-2.33152
0.645026
-1.38901
-0.15657
1.36036
-0.547373
-0.619748
-1.82482
2.60094
1.56117
-2.01033
-0.534034
2.66984
0.793308
-1.8383
-0.238302
0.809775
-1.52028
-0.0869294
0.482826
1.78181
-2.09499
-0.0912236
-1.4999
0.473683
0.713128
-0.44856
-1.02501
0.684224
-0.570848
-1.4405
-1.43169
-2.63129
2.5148
1.84781
-1.8297
2.03772
-1.23018
-1.73043
0.8686
2.60887
-2.22001
-4.15321
-1.70951
-0.686773
-1.40293
-0.195891
-1.78601
1.35893
-0.490318
-0.732964
-0.298818
1.8648
-1.11263
0.959718
-1.21864
0.814394
1.08715
0.246033
-2.09143
-1.07768
-2.09349
0.074081
-1.88635
-3.60133
3.8083
2.04839
-0.199194
1.664
-0.852539
-0.0402516
0.15835
0.731747
3.01006
-1.94608
-2.03892
-0.336871
-1.12868
-1.97291
-3.40002
-1.62753
-2.15101
1.5641
-3.432
-0.350963
-0.878253
0.145423
1.06477
0.045553
0.122605
0.903509
-0.170308
-1.71007
-0.118507
-2.0175
0.458863
-3.488
0.356933
-2.61013
-1.0933
-3.00471
-2.3782
-1.65116
-1.10338
0.528317
-2.82345
2.14439
-0.830503
-1.19898
-1.83277
-2.85624
0.0171665
0.893639
-1.10687
-2.55537
2.51302
-1.19625
1.1165
-2.46988
0.624523
-2.44225
-0.165802
-1.79683
0.195062
-3.99508
0.719639
1.1454
-0.160875
-1.61364
0.184721
-0.910412
-0.372055
-0.178492
-1.48026
1.42727
-2.67728
0.943866
2.45073
-0.0907501
-3.3262
-0.243663
-1.66515
1.34276
1.25667
0.0630001
-0.0727561
3.54505
-0.701879
2.46726
-0.895447
-1.73348
-0.989225
-0.866598
0.202747
-2.09987
1.32359
-1.17678
-0.407453
0.593632
-1.21531
-1.86888
-1.04581
-3.57708
-0.190754
0.464739
0.897615
3.15617
-3.59678
2.02708
-1.09769
2.59145
-1.0009
-1.52503
-0.844946
-1.39605
0.27231
0.999892
-1.95697
-0.0078062
-1.601
-1.5147
-0.272844
-0.298566
-0.647288
-1.27639
0.851486
0.0845365
-1.57731
-3.47238
1.98148
-2.67824
-0.589379
0.747695
0.266085
-3.78196
-2.23141
-0.601719
-1.16808
0.598191
1.08932
-0.414147
-1.23637
0.280215
0.654272
0.151529
1.4648
0.198137
1.39602
-1.23303
0.436233
-1.0523
0.730234
1.27627
-0.458448
-2.58875
-0.213752
-0.367153
2.11978
0.59602
-1.34454
-3.54109
-4.56418
-4.39439
-2.23488
-2.22065
-3.39322
-2.919
-1.63254
1.85092
-2.02699
-2.03336
-1.8844
-1.86743
0.517202
0.465718
-1.20492
-2.79706
1.52145
-1.90504
-3.33308
-4.5479
-0.517253
-5.77147
-1.277
-3.73242
-1.36851
0.274203
-0.864681
-1.1776
-0.960269
-2.58397
3.27357
0.433289
2.10776
-4.46732
-3.60357
-1.27278
0.34247
0.247523
-3.72952
-0.941897
0.716012
-1.46258
-1.90612
-2.49384
-0.5924
-4.73207
1.18839
-0.31595
0.0570137
-1.75374
-2.71261
-1.17003
-2.45009
1.75051
-1.14542
2.82795
-3.80985
-1.3388
0.725052
1.22791
-4.12899
-2.97878
-1.91918
-1.44517
-4.32447
-3.29962
-0.892137
0.338587
0.313591
0.182344
-2.77282
0.927997
-1.00786
-1.26341
-0.363791
-1.39798
-0.585669
1.39236
-2.5451
-0.578573
-0.580575
-2.55321
-0.809778
-1.20768
1.23476
-1.78028
-2.57873
-0.141497
-2.11942
-2.53299
-0.859964
-0.109757
1.86808
0.00461226
1.13724
-0.266165
-0.14606
-1.23504
-2.75831
-3.08205
-0.568994
-0.360772
-1.41186
-3.24889
0.330253
-2.52731
-2.39234
-0.0348711
-2.97886
-1.43871
-2.81632
-1.11188
0.000921674
2.12943
-1.45981
-0.353106
1.08885
-0.598797
-4.52057
-2.80071
-2.40415
0.190566
-1.52371
0.697637
-0.350737
0.395049
2.07169
-2.2262
-1.17954
2.29145
1.96229
-2.83919
0.752767
0.263575
1.95944
-0.489244
1.22247
1.09545
1.25852
-1.55483
-1.15207
2.47668
-1.07781
-1.70031
0.93979
0.580507
-1.4664
0.927132
-2.48615
0.997708
0.446432
-1.24401
1.78148
-2.19863
-1.41564
-0.613806
-0.217267
-0.25729
-3.73645
-2.4392
-2.61052
-1.84198
-2.9069
-3.15509
-3.82597
-3.20241
-0.377444
-5.28941
-4.56576
-1.3386
-2.30121
-0.798774
-1.80923
-2.57019
-1.58675
-1.95714
-2.36547
-2.26387
-4.37692
-2.00106
-3.7221
-4.2779
-2.8492
0.275361
-2.12962
-0.0536365
0.656583
-0.74451
0.10439
-0.393985
-0.271374
-3.89781
-1.15872
-2.65381
-0.313087
-1.44677
0.249016
-0.0832936
-3.11928
-4.56589
-5.10811
-2.57814
-0.31828
-1.22257
-3.04558
-2.85613
-1.70302
-0.136009
-1.86435
2.1306
1.01828
-3.72223
-3.41172
-0.892771
-0.48255
-4.98402
-0.96424
-0.735807
-1.47233
-0.0291652
-3.77433
-1.29801
-4.05738
-2.34383
-2.06113
-1.26274
2.5513
-3.04441
-3.49201
-3.95033
-2.17014
1.82029
-3.61306
-2.57793
-4.325
0.568202
-3.18199
0.167017
-1.98782
-0.562596
-3.31139
-3.31293
-3.81988
-1.18134
-4.59714
-0.459508
1.24893
1.11227
-1.79582
-0.23421
-1.82707
0.0363192
0.167863
0.0163664
-0.507461
0.77274
-1.41792
2.28712
-1.81158
-1.20042
0.555626
-2.11044
-0.369484
-1.73763
-1.58257
-2.0732
0.482205
-1.34811
-1.87316
-3.37327
-0.264308
-0.723971
-3.21307
-0.0382461
1.71119
-2.36159
-3.6679
-1.23413
0.211174
1.52897
-0.261196
-2.38142
-1.87897
-2.80278
0.0541892
-1.61001
-3.66933
0.968259
2.82046
-0.0136691
0.570944
-0.756769
1.32002
-2.48205
-1.73396
-3.46999
0.667928
0.340088
0.178368
-0.678965
2.89508
1.94557
-0.065317
-3.32513
-1.66755
1.26218
1.70291
-0.0579542
-3.24414
2.28
-2.94111
1.20086
0.716863
0.763953
0.92695
2.38052
-0.0157014
-3.00267
-5.28625
-4.92578
-3.20002
-3.28479
-3.74681
-4.51461
-0.502588
-1.94563
-0.128087
-2.95624
-2.80907
-4.62808
-4.07923
-4.28476
-1.72335
-4.6955
-1.26015
-3.8212
0.304873
-2.56572
-6.39619
-2.17138
-5.81193
-1.34163
-2.94867
-1.51571
-1.00992
-3.03983
2.75482
0.7691
-1.36044
-3.24898
-2.0901
-0.903447
-2.2745
-4.2655
-5.78686
-4.08277
-1.46986
0.664918
-2.52207
-2.12811
1.26529
-3.14798
-5.08999
-3.39679
-1.89939
-3.07691
-1.97142
0.772316
0.203995
-3.3785
-3.82756
-2.67857
-1.21335
-0.00284307
0.0648159
-1.78512
0.179881
0.131041
-2.21966
-3.27719
0.697181
-1.58165
-1.60968
-1.61964
-4.394
1.20864
-0.0913101
-1.23153
-1.67724
1.76978
1.23279
-0.327633
-2.4113
2.47514
-1.12434
-0.918242
-2.52496
-3.26793
0.399368
-2.76876
-4.10662
-1.72815
-1.94994
-2.97125
1.65581
-0.855012
-3.54649
-3.91892
-2.23101
-2.89823
0.526788
0.828373
-2.36904
0.509268
-0.411352
-3.58786
0.320693
-3.57826
-0.839734
-0.813876
-2.18364
-1.87432
0.769422
-1.56365
0.0312705
-0.43814
-1.25295
-3.45419
3.44559
-0.827074
-2.44251
-1.82412
-3.19151
0.644892
-2.66644
-1.83496
-0.261209
-1.31198
4.45924
-0.37665
2.09351
-3.52559
-5.75545
-1.76733
0.240773
-3.7177
-0.899348
-1.72393
0.668415
3.72343
-0.698097
-2.08648
-1.76332
-1.26654
-0.797725
-0.498219
0.775575
-0.452141
1.07786
2.84976
0.171791
-2.13339
-0.07008
-0.930854
-2.05349
1.24936
-0.129106
1.15649
0.584904
0.7407
0.497321
-0.791021
-1.10269
0.220743
-0.726534
-1.88149
-0.496639
0.392718
-0.474468
-3.78703
-1.43961
0.0792012
-4.97409
-4.47198
-3.15022
-1.74591
-2.19137
-3.07094
-1.21161
0.172087
-3.25882
-1.10814
-2.45495
-4.04752
-3.15849
-2.52044
-3.76775
-2.80654
-0.746055
0.0902994
-0.848912
-2.78453
-1.77922
-0.211347
-1.92001
-0.159945
-2.91907
-0.548423
0.173829
-2.14513
-0.445412
-1.04588
-0.546855
-1.35325
-0.324016
1.50314
-0.164681
-1.18472
-2.56475
1.2909
0.399951
-3.12356
-3.94532
-1.07787
-2.0034
-3.18185
-2.52433
-0.159566
-1.60511
-3.37292
-0.995232
-1.42959
-1.50386
-4.50465
-3.16409
-2.09528
-0.242453
-0.0745884
-0.0992359
0.0455385
1.24317
-0.592826
-3.89183
0.760869
-4.30518
-2.86504
-3.10486
-4.06905
-1.71954
-1.56842
-4.88285
-4.11615
-2.37451
-0.331976
-4.24637
-2.35017
-0.883977
-0.872522
-4.20302
-0.723448
-1.28393
-4.77132
-0.210084
1.01863
-1.07327
-3.89715
-2.76976
-3.375
-0.517125
-2.89515
-4.06161
-3.67627
-1.84368
-2.26542
0.690889
-0.680921
-3.27825
1.18454
-1.49534
-1.37429
-3.32257
0.0644483
-1.13315
-3.04981
-0.744735
-2.126
-1.83487
-2.61991
2.25392
-3.41591
-1.30628
-2.18127
-0.114204
0.472789
-1.87729
-0.515596
-1.52976
-1.12264
-1.84874
-0.581053
-1.49396
-1.69375
1.81706
-0.100354
-0.982866
-1.01977
1.06157
-1.01268
-2.20496
-1.88868
-4.36013
-2.2951
-0.237353
-1.42966
-1.91051
-1.25601
0.612605
1.6226
0.580018
-0.0962514
0.672652
-0.559499
0.76398
1.24619
1.61143
0.0645553
2.50132
-0.179583
-3.32427
-0.161488
0.19639
0.604947
-4.01467
-1.84878
-1.05209
1.61155
-1.72263
-0.0575796
-2.43248
-3.06887
-2.97645
-4.96889
-4.22466
-2.29469
-3.08085
-2.93041
-2.97022
-0.443872
-3.95164
-5.03169
-2.48143
-2.40885
-2.76054
-2.48014
-2.03842
-1.77039
-0.638902
-0.516271
-2.46653
-2.57037
2.21135
-0.5361
-2.17249
0.180365
-4.93345
-0.313154
-3.45023
-0.901538
0.035442
-2.63019
-0.20769
-2.24316
-0.24657
-2.16675
0.133572
-1.82263
0.0205673
-1.75714
-3.01226
-2.14474
1.05738
-3.70099
-3.2656
-0.296247
-2.22112
-0.094265
-2.88799
-0.655398
-0.491469
-1.93273
-0.122455
-3.21864
-3.06324
-2.9291
-2.74944
-2.8953
-2.94877
1.04494
0.790783
0.208013
-0.653227
-0.0969875
-3.5791
-2.8172
-3.21591
-2.90603
-0.815627
-4.02776
-0.492442
-1.38387
1.30048
-2.16085
-1.22928
-1.15175
-4.45246
-2.16822
-2.16089
-0.623275
2.3114
-1.65954
-4.09485
-2.90612
-2.84187
-1.68713
-2.51175
-1.19205
-1.17705
1.68829
-0.842219
2.743
-0.923517
0.123853
-1.19042
0.401477
-1.54766
1.21691
-3.17912
-1.32945
-2.20771
-0.362218
-4.72835
-0.199232
0.238841
-1.37905
-2.97072
0.973593
0.343728
0.315117
-1.36676
0.129868
1.07669
-1.94617
-0.35391
2.94023
-1.04794
-2.32168
0.486444
-1.75708
-0.517673
2.9361
1.90133
0.698308
-3.05683
-0.661434
1.39223
-1.43408
-0.829004
-2.90012
-0.90855
-0.107098
2.24886
-0.619508
-0.455396
-0.0313564
-0.83034
0.736872
1.13654
-1.68778
-0.512658
0.702325
0.0801365
1.41247
0.425262
0.817944
-0.0822259
-1.28142
0.354811
0.267393
0.353307
1.71063
1.39675
1.79863
2.08082
-1.59549
-0.97892
1.26878
-2.24782
-1.63341
-4.08346
-4.19365
-1.12219
-5.79602
-5.83845
-2.96849
0.543817
-2.6408
-2.3475
-4.01039
-3.94589
-2.05024
-1.49785
-2.01004
-1.87328
0.0712745
-1.88701
-3.44946
-1.66242
0.573361
-1.70712
-0.405493
-2.42935
-1.38361
-2.23934
-1.14253
-1.52878
-5.28807
-1.82579
0.149194
-0.402613
2.35156
-4.20077
-2.26512
0.0980885
-3.47923
0.507592
-2.072
-0.902369
2.01082
-2.25742
-2.06477
-2.26876
-2.17111
-1.89172
-1.66657
-3.32426
-1.0008
-3.70558
-3.4315
-7.12354
-2.18569
-1.43259
-2.56913
-1.01523
-0.072937
0.776277
-0.664954
-0.49784
-2.78095
-1.52148
-2.68329
-4.32185
-0.642291
-0.478228
-0.362048
0.518288
-0.894509
-5.29812
-4.64824
0.466905
-3.49132
-4.79894
-0.589482
-0.984703
-0.341573
1.18549
0.875844
-1.37242
-1.17561
1.92918
-3.21132
-1.87805
-5.45081
-1.53552
-1.63342
-2.26538
-3.43053
-1.78724
0.373803
-0.838814
-0.514323
-1.0231
-0.304174
-3.85678
-0.0784111
-1.16335
0.157832
0.00260855
-0.095517
-3.21313
-0.0770035
-4.11288
-0.575933
-0.142484
-0.499487
-2.64866
-1.85121
2.77702
-1.68939
0.443193
-2.62732
-0.799247
0.469301
0.188818
-0.302813
-3.9648
-0.78309
0.63978
-1.83527
2.30861
-2.84627
-0.762721
-1.77356
-2.36622
0.620916
-2.03368
-2.35599
-2.41172
-0.858626
1.06201
0.66633
0.485946
1.2122
1.57803
-2.01988
0.45998
0.000548106
0.0731337
0.293708
-1.68221
-3.39343
1.99745
-0.390192
4.74074
0.42441
2.75144
0.506718
-1.14346
-1.49842
1.3727
-1.64494
-1.24285
0.84829
-0.851614
-1.87421
2.16175
0.990266
-1.04101
0.128307
0.234537
0.664556
-2.50992
-3.99877
-3.4635
-1.62696
-1.79517
-4.59349
-3.67045
-2.20102
-2.00052
-2.87933
-1.70591
-1.61326
-3.54236
-1.29533
1.55151
0.338399
-1.13288
-2.18519
-0.000236835
0.776323
-4.04351
1.61295
-3.33677
-0.409184
-1.47544
0.302287
0.0983158
0.263178
-0.182847
-5.59097
-0.916739
-1.76472
0.210464
-1.14987
-0.328391
-1.14118
0.944555
1.36258
-0.535162
-0.659343
-0.373164
-0.0956056
-5.2388
-4.8563
-0.309479
-0.945456
-2.50397
-1.31646
-2.32862
1.85501
-1.53537
-1.5479
-1.41495
-1.90569
2.03155
-0.0977426
0.15052
0.2305
-1.08927
-0.942166
-2.31799
-4.1117
-1.51462
1.12138
-0.987908
-5.1768
-4.62478
-1.06174
-3.01183
-0.0904991
-0.201107
-1.95436
-0.210568
-0.563615
-0.264258
0.0501652
2.51004
2.03822
0.771253
-0.269423
-1.76375
0.420141
1.33385
-1.53106
-2.94202
-1.35151
-1.68699
0.433323
-3.87889
1.28386
1.19931
-1.95987
-1.11774
-0.260702
0.747212
-4.08205
1.01893
-2.11172
-2.65402
-1.92353
-0.443558
-0.560956
2.93015
-0.82066
-1.87567
-0.684932
-1.23271
-3.27355
-2.6456
0.969348
-0.336137
-1.72582
0.657036
0.274289
-1.71402
-0.132204
2.09794
-0.793062
-3.33061
0.229397
0.707781
0.337438
0.432955
-0.921998
-1.48912
0.855608
0.217242
-1.00894
1.16616
-0.75254
-1.80308
-2.30389
1.76934
-0.9907
0.0874933
-0.440013
-1.70194
-1.13155
0.422668
-0.734733
-0.990598
-2.27481
1.48462
1.28845
-1.68684
0.0948085
0.337789
2.64728
-1.38504
-2.09428
-1.02415
0.75622
1.42611
-1.03563
1.45875
-0.42676
-2.31197
0.733931
1.35232
2.06431
-0.816814
-3.57733
-0.459713
-1.59342
-2.3442
-1.43422
-2.72877
-0.676976
-4.02992
-1.28531
-0.696178
-1.49202
2.02937
-2.42002
0.786709
-1.35981
0.511747
3.88846
3.25717
1.65142
-2.48925
0.123897
-2.99413
-0.141088
2.36266
-2.15808
-3.83125
-0.667989
0.909246
1.65271
-2.65529
-1.27363
1.6744
1.33384
0.5507
-0.0334426
0.523683
3.7426
0.687444
2.94093
1.00222
-0.317709
1.67622
-3.1286
-1.74599
-1.02516
-0.33648
-0.156039
-3.22473
-1.03456
0.65423
-2.27238
-2.42316
-0.503336
0.671454
2.83292
0.981198
1.69847
-0.454394
3.36649
-0.925082
0.223975
-0.455488
-1.08706
0.323121
-0.798135
0.769127
0.250165
-1.45689
-3.0746
-2.77005
2.63564
-0.0820476
0.102341
0.866857
-4.233
-0.338792
1.12675
1.88055
1.77069
-1.85846
-1.71487
-1.29374
-0.3325
1.99886
0.141528
-3.75072
-0.838671
-0.300922
3.05987
-3.33231
-0.186624
-1.05053
-4.39974
0.708649
0.666053
-2.81716
1.9247
-0.300862
0.0855988
-0.459065
-0.998161
-1.95627
-0.552058
-0.217591
1.21935
-0.347264
-3.83384
-2.00742
2.00565
-1.68083
1.19826
-0.871219
-0.233068
0.0462688
0.52471
1.36406
0.612788
1.86041
-1.4753
-1.80463
-0.880594
0.32445
-1.44276
0.664435
-1.32359
-0.263723
-0.897867
-2.3713
-0.661117
0.963737
-0.875736
1.97921
-2.69234
-1.23974
1.77178
0.867813
-0.156292
1.40064
2.80196
-1.86875
-0.243261
-1.26089
-2.26003
-2.01797
-1.08422
0.86907
1.1773
0.81072
-1.35785
0.63329
-1.05685
-0.0383897
0.716667
3.6689
-0.416137
-0.757902
1.10855
0.590071
0.563223
3.3714
0.52189
3.93785
0.417559
-0.240959
-0.421443
-2.67051
-1.72307
-1.80208
1.14733
1.25272
-0.118986
0.954933
0.569673
2.33864
-0.391276
2.44706
0.685751
1.53456
-0.663164
1.58077
-0.38036
2.05106
0.196082
0.808333
0.535017
-1.47195
-0.387248
-0.448744
-2.18578
0.868304
-4.9324
-0.339054
0.986607
0.0550216
1.42642
-0.260798
2.67108
1.24606
-1.1806
2.68375
-1.43972
-2.40813
0.351222
0.775106
3.06073
-0.779164
1.4457
0.747173
0.213317
0.482909
-2.36541
1.70511
1.11645
3.13477
1.01018
2.79894
4.64909
1.91216
1.08859
-0.229625
0.624107
-1.23157
-0.787802
-1.90176
-1.3197
-1.31272
2.57729
0.352629
-0.272558
-2.14858
-1.32375
-0.317257
3.5954
0.79013
2.25783
-1.57284
1.71462
-0.333776
2.7064
2.10424
1.73862
-1.8801
0.492358
-3.57827
-0.362244
1.32882
-3.39432
-3.12459
-1.36923
-0.242349
0.50361
2.17135
1.18315
3.94445
-1.36096
2.86505
-1.39149
-1.39421
2.51515
-2.15902
-2.12135
-1.64134
-0.0647171
0.619866
-1.33108
-0.853649
-0.510299
1.70257
0.482799
1.16088
-2.68341
0.811064
-1.4292
1.38377
2.72994
-0.285549
2.75397
2.29627
1.67948
-0.692169
-1.40667
-1.53236
-0.775124
-0.698024
-0.509069
0.116255
4.72412
1.44915
1.17419
0.0718086
-3.75503
0.105072
1.09399
-0.635852
-0.669243
1.82014
-0.453517
-0.646758
-0.238307
2.20706
-1.09485
0.799897
-2.46576
-2.95314
0.398778
-0.469619
2.27716
-0.264125
2.62352
-0.889914
1.10554
1.08912
3.09362
-3.43106
1.7624
0.321435
-2.68673
5.66902
4.53505
-0.20215
2.40609
4.03975
2.72688
2.61126
2.67507
3.72108
2.30164
0.78477
2.09447
0.682632
0.0233041
0.654193
0.96562
3.26022
2.62655
2.20276
5.64433
3.54814
4.95563
1.45578
3.66548
2.49031
1.99021
3.66602
0.950999
-0.716772
2.53557
-0.174708
-0.337013
1.83368
0.373311
1.49537
3.18761
-0.11892
1.4432
5.61474
4.31722
0.170395
4.52474
4.78008
0.930519
0.0649445
-0.431089
1.53065
0.449209
1.98265
-1.49504
-0.628214
1.53833
0.591302
-0.621558
-0.29755
4.09522
5.51853
4.08594
0.246979
5.27085
-1.27956
4.09584
1.97669
1.27899
2.11488
-0.627245
-0.851254
2.43385
1.50245
1.45235
-0.377878
-0.38
0.649373
-0.347418
-0.384642
1.23998
2.34321
3.23919
2.54834
3.71874
-0.876776
3.35953
3.47815
0.173673
-1.00772
1.97978
3.9758
0.295427
2.52967
-0.583552
1.91392
-0.142948
-0.0985514
-2.38085
-0.253257
-1.32066
1.23362
3.67752
3.48655
4.11208
3.82316
2.08505
0.524216
-2.25629
-0.204363
0.41373
-2.27658
1.70376
-1.90524
-0.758648
1.2949
-0.491544
1.75347
-0.3028
2.40998
1.10278
-0.280856
0.157456
1.61052
1.95677
2.56614
1.80076
-0.999527
1.18579
1.35545
3.01876
0.403826
0.823118
-0.590764
-2.82084
0.441586
1.79956
-1.97666
-1.89495
2.66546
-1.28188
-0.37725
0.572305
5.04525
2.71608
-1.0762
-0.816614
2.24108
-1.26784
0.374735
1.42086
-0.53372
0.0564528
2.40618
0.336725
2.76302
-0.763403
0.856824
2.18565
-2.35481
-3.05452
1.78265
-0.929815
2.72834
4.21678
4.42464
7.11357
6.32462
2.99875
1.61054
4.12549
2.64856
0.76114
1.63806
1.03585
2.56508
-0.245992
0.841624
2.13931
2.69854
4.37256
7.43764
3.72633
6.63504
7.41321
7.07075
-0.392972
2.5248
0.392487
1.49881
1.01241
1.99464
-0.114778
1.75975
1.08596
0.34449
1.19336
0.348938
5.23871
0.0258472
3.06248
0.34595
3.64036
0.786771
9.72823
3.44098
2.3308
7.16002
0.981471
0.486927
3.59286
1.44168
0.832328
0.927593
1.50815
3.42052
4.6896
-0.0809445
1.62142
1.28017
2.12246
4.44749
4.53922
3.58345
8.15849
1.62874
4.41147
0.903341
3.08038
1.3429
1.13809
5.22409
-1.73012
0.0651196
1.33427
1.92021
4.33184
3.47111
2.29754
0.693169
1.93035
3.74956
4.30358
3.20047
4.78215
2.25617
0.215873
2.41961
0.789548
2.95514
3.09229
-0.273396
1.30389
2.14825
0.952644
-0.502655
0.360425
0.900343
0.0794383
2.43219
1.94603
0.883544
5.73034
6.17696
2.19286
3.07484
2.80352
2.99989
-0.810374
-1.70468
0.453321
0.836058
2.3829
-0.720837
1.00201
2.91313
1.02453
2.22486
3.37052
2.46449
1.53255
2.42418
3.38776
0.154516
4.22221
-0.999255
3.02626
2.91935
0.382352
-0.739654
-1.44237
-1.88953
-1.82816
0.988624
2.32776
2.13946
2.40704
0.411459
1.67011
-1.7123
1.31943
3.49137
2.6914
0.46354
2.97185
-0.703847
1.71437
-1.1458
-0.135188
2.99239
1.04451
-1.09473
-0.712563
-4.46687
0.700209
2.37068
0.625573
-0.0468745
0.806847
1.31886
0.22729
-0.767593
0.0814551
-0.37559
1.05759
8.51249
7.10841
3.27419
6.50691
4.97977
4.55406
3.82216
4.17465
0.820843
1.79627
3.26469
5.81629
3.91846
3.26326
0.96707
4.30924
5.9292
7.57164
7.39414
10.7507
6.80293
5.25128
7.01102
5.06751
3.66438
3.62472
2.66376
4.63615
6.31693
1.79235
0.259539
2.62866
5.45835
3.19039
4.16113
4.20092
6.88456
6.52857
9.7158
9.393
6.52062
8.66302
1.23067
5.44365
2.74448
1.51964
3.45324
2.02012
6.08358
2.62186
1.18003
2.65519
2.93158
5.57825
3.11768
3.44403
8.22299
6.84624
5.45416
6.94235
4.50076
1.9815
-1.62275
4.62571
-0.192421
0.255441
3.85957
2.02415
1.06181
4.03102
1.34542
1.7462
2.05916
2.49614
0.225991
3.25276
4.261
4.93188
5.58239
6.33579
1.04579
4.49911
3.58562
1.76469
7.2093
-0.225778
4.08864
4.18997
0.93618
4.72951
3.07019
1.132
2.12865
-0.103865
3.02551
2.0482
2.23881
1.23312
2.58373
4.62193
4.08738
5.53512
3.95691
0.785991
0.90049
1.66539
1.04777
0.104382
1.37415
1.07321
1.90649
2.92993
3.12743
3.0159
2.8404
2.54966
0.732928
3.75782
3.85584
3.19549
0.855693
-1.67774
1.74338
3.96318
-1.08942
0.263129
2.98246
2.33923
2.75489
1.51308
3.5742
-0.489388
-1.49496
-0.377657
1.6394
-0.117082
0.143971
2.45702
3.26615
-1.07063
0.976062
2.30445
3.541
0.277722
1.33469
2.67159
3.56713
3.12377
-2.15122
2.01521
0.990594
-0.0641854
-0.0222617
0.209937
0.185524
-0.803806
0.440545
-1.94679
1.38605
0.578991
9.25746
7.89644
5.81693
8.15094
6.78523
4.83104
6.2432
3.14242
2.03349
7.3631
5.68682
6.84806
7.38472
4.8166
8.47938
5.77557
9.17854
11.5519
9.15071
12.8808
6.02765
0.00468453
9.65895
-0.264693
7.6917
0.970755
4.22617
0.0519394
6.94528
-0.00368671
0.493104
7.16813
0.30482
6.64647
1.02133
7.53814
0.097628
4.90708
-0.259658
10.1331
8.48834
5.68895
6.03729
4.32932
7.60782
3.21343
4.91791
4.8212
2.70021
4.53364
3.62363
5.66131
3.79664
2.1922
7.36153
5.81905
4.74259
6.88357
6.33548
6.01445
5.31895
4.35822
7.95431
6.24685
4.63761
5.57901
3.0266
4.65973
1.15562
2.59607
2.11874
3.7869
6.4364
1.69938
3.02702
4.97835
4.02042
3.99948
6.89381
5.11676
6.58876
3.75017
5.53053
3.10199
1.39807
3.49373
2.10939
1.51556
4.3941
1.11254
7.00129
0.775688
2.07602
1.90025
3.73368
0.0792518
4.44626
7.54809
3.19805
4.3748
2.8403
0.321741
6.43901
2.42834
5.31311
2.67414
4.34307
-0.499655
4.01399
0.802914
0.884927
2.99865
0.33268
3.58329
0.788349
3.82614
0.804636
3.42129
3.11457
3.1158
1.92509
3.07026
0.983601
1.60635
0.988225
3.7059
-1.3281
1.31283
-1.46726
2.4326
2.99366
1.34537
-3.48099
4.14321
1.87991
1.27169
1.77198
3.01357
0.459017
1.86738
-1.24899
1.5882
0.794452
1.57319
-2.31468
0.32145
-0.333063
-0.124878
1.37057
3.22995
-1.69961
-0.515963
-0.669121
-1.19492
-1.67212
2.92999
-1.90835
1.00201
1.37948
-0.222153
14.899
9.98203
7.35279
7.2182
9.7433
10.2893
8.97445
8.44003
9.18941
5.12206
8.09981
8.06903
8.21397
8.97699
6.00163
11.4218
9.85004
9.63488
17.4417
14.9664
11.2716
10.3224
9.92182
9.87787
8.36307
8.41378
9.57247
8.97928
8.65718
9.38638
6.96378
5.40608
6.12352
7.6025
6.51756
9.19519
8.0779
8.91748
7.39718
9.52405
7.76402
6.77132
5.33346
5.72138
4.208
7.30446
8.06336
5.00101
9.08008
3.1175
3.05182
2.33745
2.52795
3.50049
8.06328
7.31063
9.6634
8.45615
9.51088
7.68879
7.26772
3.64715
5.39437
4.58129
2.42392
4.54453
3.97967
4.78933
4.67355
3.18133
3.41613
2.18643
5.16594
4.3286
6.13067
8.9603
5.32088
7.27652
9.19561
8.44633
7.2916
9.36954
2.08655
3.51888
5.7276
5.0627
3.93976
2.76411
3.80976
3.70625
-1.35484
2.38862
4.69904
0.642541
4.37601
1.12677
2.12145
4.07138
6.03628
5.17499
5.99005
3.19074
2.82274
2.86127
3.21161
4.02372
1.04194
0.484262
3.4106
3.57511
0.621132
0.61195
2.49641
2.09678
-2.59728
3.45888
0.914304
1.7711
5.66997
5.89583
-1.09127
0.849821
1.44545
2.32455
3.08108
1.69588
3.12294
0.321555
1.05818
2.15691
-1.213
-0.143195
3.47197
0.367272
2.08106
2.49533
1.25395
4.33224
3.07859
3.8379
1.29424
0.549285
0.800483
0.278145
-2.08582
0.0038735
1.9548
1.54578
2.01244
0.39056
1.95198
0.819753
0.621377
-1.63028
2.23433
0.694609
2.86237
-0.257428
4.52335
-0.282028
)
;

boundaryField
{
    hotSide
    {
        type            calculated;
        value           nonuniform List<scalar> 
400
(
2.23063
2.50491
-1.63371
-0.936129
0.352175
-1.21007
-0.465555
-2.85965
-4.41122
0.399433
-1.55887
-3.20908
1.1109
2.23207
1.47475
6.56029
5.32426
9.42232
10.1794
15.8351
1.03802
2.57617
1.13255
-3.18479
-1.27358
-0.142848
-2.61097
-1.5138
-4.00481
-2.86994
-2.15484
-3.28161
1.57589
2.97643
1.47777
5.45382
8.03847
8.04143
8.83965
10.9375
-0.0419455
1.65748
0.142617
-1.23949
-1.01678
-1.10146
-3.57959
-1.63358
-2.23061
-0.477208
-2.02026
-0.171092
-1.56252
0.12848
4.31639
0.744501
7.275
4.23047
6.78134
8.32761
1.38714
2.9766
-0.595831
-0.167931
2.13905
1.12596
-3.35305
-0.811632
-2.26542
1.08805
-3.96973
-4.80534
-3.01506
-2.59881
1.49719
3.38033
3.97421
7.48596
9.136
8.21175
4.69794
3.63633
1.08315
-1.4409
1.22164
-0.773716
-1.13622
-1.82287
-2.67749
-3.91907
-3.18303
-4.80889
-2.44433
0.551053
4.94241
5.04047
2.60994
5.98044
7.78981
10.7545
2.30709
4.02783
2.96307
3.2858
0.453788
-2.42958
-1.06646
-2.0193
-3.39742
-3.37294
-1.2128
-1.90228