/*--------------------------------*- C++ -*----------------------------------*\
| =========                 |                                                 |
| \\      /  F ield         | OpenFOAM: The Open Source CFD Toolbox           |
|  \\    /   O peration     | Version:  2212                                  |
|   \\  /    A nd           | Website:  www.openfoam.com                      |
|    \\/     M anipulation  |                                                 |
\*---------------------------------------------------------------------------*/
FoamFile
{
    version     2.0;
    format      ascii;
    arch        "LSB;label=32;scalar=64";
    class       volScalarField;
    location    "0";
    object      relativeErrorField;
}
// * * * * * * * * * * * * * * * * * * * * * * * * * * * * * * * * * * * * * //

dimensions      [0 0 0 1 0 0 0];

internalField   nonuniform List<scalar> 
3200
(
0.00109237
0.00273279
0.00449811
0.00610276
0.00695791
0.00711502
0.00768956
0.00762911
0.00705873
0.00670261
0.00626026
0.00554967
0.00472797
0.00389952
0.00260051
0.000938593
0.000459339
0.00282691
0.00511789
0.00735686
0.000792776
0.00243697
0.00377434
0.00515637
0.00589693
0.00633344
0.00644367
0.00639697
0.0062354
0.00571238
0.00522559
0.00469704
0.00406917
0.00320821
0.00206888
0.000939252
0.000652148
0.00258388
0.00460805
0.00631301
0.000585852
0.00195212
0.00316165
0.00414181
0.00483919
0.00536161
0.00555604
0.00569167
0.00523592
0.0047284
0.00460209
0.00409687
0.00353851
0.00264176
0.00173758
0.000577805
0.000697311
0.00243708
0.00404441
0.00568918
0.000567144
0.00164354
0.00248464
0.00332527
0.00410441
0.00453888
0.00444528
0.00445973
0.00427501
0.00418689
0.00371569
0.00334954
0.00258278
0.00208449
0.00122781
8.45196e-05
0.000462897
0.0020788
0.00325766
0.00485239
0.000373421
0.00125414
0.00206264
0.00269291
0.00310789
0.00341721
0.00379989
0.00339977
0.00340643
0.00312367
0.0027476
0.00227852
0.00213715
0.00177509
0.000964037
0.000157004
0.000542009
0.00168406
0.00279976
0.00380104
0.000211753
0.000797162
0.00145611
0.00209807
0.00223389
0.0023751
0.00259169
0.00257951
0.00219088
0.00231121
0.00185344
0.00175863
0.00130798
0.0011951
0.000723285
0.000394198
0.000539408
0.00116883
0.00183458
0.00262064
5.92846e-05
0.000715937
0.000868803
0.00115945
0.00136696
0.00149815
0.00157585
0.00163095
0.00139832
0.00137488
0.00129452
0.000862344
0.00106726
0.000499681
0.000383381
0.000270938
0.000152463
0.000654303
0.00122201
0.00185725
0.000118197
9.41535e-05
0.000407894
0.000367071
0.00041193
0.000465071
0.000527106
0.000591435
0.000451946
0.000335129
0.000348666
0.000347457
2.2256e-05
0.000199934
0.000182985
0.000223551
7.80388e-06
0.000374974
0.000420181
0.000540048
0.00399936
0.00576136
0.00730028
0.00878904
0.0100409
0.0105251
0.0105943
0.0108919
0.0104807
0.0100213
0.00953945
0.00875297
0.00806205
0.00703986
0.00578653
0.00428984
0.00234548
1.25048e-05
0.00214441
0.00438046
0.00310903
0.00474337
0.00613994
0.00727286
0.00856611
0.00894996
0.00911877
0.00907876
0.00890979
0.00864142
0.00807341
0.00754694
0.00664113
0.0057949
0.00474962
0.00354825
0.0018716
0.000166253
0.00213533
0.00425306
0.00250215
0.00383417
0.00514699
0.00626574
0.00716673
0.00754726
0.00758173
0.00758935
0.00760228
0.00695282
0.00677871
0.00627455
0.00575368
0.00493743
0.00386106
0.00278682
0.0014079
0.000173852
0.0022043
0.00373053
0.00202138
0.00295522
0.00405224
0.00509849
0.00557345
0.00610282
0.00612347
0.00608849
0.00611453
0.00580456
0.00558013
0.00534808
0.00464569
0.00375375
0.00300646
0.00215336
0.000809562
0.000467341
0.00186772
0.0030788
0.00137157
0.0024006
0.00296918
0.00410628
0.00421873
0.0045796
0.00469191
0.00497898
0.00476384
0.00439611
0.00414472
0.00377159
0.00350414
0.00313484
0.00207917
0.00140058
0.000701236
0.000227422
0.00153298
0.00256811
0.00126451
0.00161408
0.00223981
0.00254036
0.00315313
0.00339572
0.00343927
0.00354752
0.00327632
0.003059
0.00283254
0.0027737
0.00243063
0.00204898
0.00142616
0.00108411
0.000474154
0.000384557
0.00134823
0.00190856
0.000572152
0.000898437
0.00132598
0.00155851
0.00203749
0.0020387
0.00192232
0.00193141
0.00208328
0.00172481
0.00171217
0.00156067
0.0014255
0.00101399
0.00114285
0.000435297
0.000242263
0.000257503
0.000881123
0.00105078
6.64887e-05
0.000536051
0.000795705
0.000433493
0.000579323
0.000658706
0.000758055
0.00076619
0.000743346
0.000834415
0.000523169
0.000611142
0.00026907
0.00041351
0.000357152
0.000266562
1.43169e-05
0.000322081
0.000240899
0.000694021
0.0069454
0.00914859
0.0110032
0.012463
0.013634
0.0142051
0.0145348
0.0145717
0.014514
0.0142155
0.0137522
0.0130519
0.0118562
0.0107595
0.00945131
0.00788197
0.00608547
0.0036621
0.00117572
0.000967088
0.00598917
0.00754018
0.00909744
0.0109001
0.0115516
0.0122545
0.0126035
0.0125341
0.0122947
0.0120428
0.0114686
0.0109499
0.00997342
0.00920781
0.00798287
0.00668935
0.00486286
0.00285044
0.000569898
0.00152129
0.00484494
0.00630959
0.0074752
0.00884215
0.00955891
0.0101387
0.0105791
0.0105718
0.01037
0.0100928
0.00950725
0.00913802
0.0084955
0.00769032
0.00677061
0.00524575
0.00402226
0.00225395
0.000253096
0.00142403
0.00389123
0.00520578
0.00632222
0.00701774
0.00773998
0.00858225
0.00851301
0.00846189
0.00828355
0.00822445
0.00787663
0.00726002
0.00674948
0.00613413
0.00550216
0.00426821
0.00323526
0.00146747
5.53786e-05
0.00126156
0.0029041
0.00412673
0.004676
0.00544921
0.00606696
0.00650138
0.00648635
0.00676347
0.00671845
0.00642628
0.00583669
0.00591677
0.00522321
0.00475547
0.00400411
0.00318221
0.00224168
0.00108152
0.000108732
0.00117932
0.00196731
0.00280789
0.00336408
0.00384465
0.00449449
0.00447362
0.00466886
0.00464336
0.00471799
0.00454357
0.00452764
0.00418916
0.0040814
0.00339111
0.00303685
0.00231886
0.00165407
0.00076442
0.000217177
0.000778695
0.00122065
0.0015414
0.00208577
0.00226001
0.00255205
0.00259819
0.00299878
0.00301859
0.00291378
0.002873
0.00279739
0.00235661
0.00233668
0.00215279
0.00177454
0.00115986
0.00103544
0.000371577
5.07282e-05
0.000624464
0.000444398
0.000354387
0.00076045
0.000909754
0.000855399
0.00105885
0.0010604
0.00101441
0.00108032
0.00108929
0.000983002
0.000972865
0.000898203
0.000735057
0.000603022
0.000359547
0.000519137
3.96738e-05
8.54103e-05
9.73314e-05
0.00998519
0.0121718
0.014321
0.0158212
0.017126
0.0178849
0.0184043
0.0185301
0.0185101
0.0178876
0.0177503
0.0167517
0.0157728
0.014731
0.0135956
0.0115103
0.00948127
0.00715239
0.00444811
0.00181682
0.00852749
0.0103601
0.0120374
0.0134549
0.0147239
0.0153555
0.0156144
0.0159971
0.015552
0.0154161
0.0151971
0.0141757
0.0136079
0.0125261
0.0113855
0.00993899
0.00799779
0.00605142
0.00338853
0.00125306
0.00702445
0.00845134
0.0102762
0.0112116
0.0121198
0.0127467
0.0131541
0.0131746
0.0133763
0.012984
0.0126013
0.0119693
0.0116764
0.0104763
0.00924997
0.00798729
0.00659121
0.0046146
0.002788
0.00102236
0.00568118
0.00709061
0.00819623
0.00942011
0.00995288
0.0106927
0.0109897
0.0109528
0.0107295
0.0108762
0.0102695
0.00979165
0.00923436
0.00845993
0.0075501
0.00655828
0.00522152
0.00375285
0.00198319
0.000599899
0.00445466
0.00551096
0.00618442
0.00725827
0.007737
0.0080987
0.00824724
0.00848506
0.00849295
0.00815556
0.00807031
0.00751861
0.00703659
0.00667372
0.0058241
0.00512056
0.00420212
0.00282211
0.00151514
0.000305956
0.00314028
0.00362647
0.0046096
0.00506499
0.00556127
0.00595524
0.00606918
0.00601925
0.00600404
0.0059841
0.00559679
0.00575477
0.00511919
0.0046737
0.00415241
0.00349501
0.00292309
0.0020557
0.00105421
0.000405474
0.0019423
0.00235682
0.00273663
0.00304733
0.00329278
0.00373047
0.003465
0.00361376
0.00396463
0.0037672
0.00349303
0.00346393
0.00296408
0.00290277
0.0025252
0.00215939
0.00160649
0.00103834
0.000621297
7.67123e-05
0.000712158
0.000819123
0.000988196
0.00108832
0.0013537
0.00100872
0.00112132
0.00128488
0.00151158
0.00112566
0.00111146
0.00111193
0.00104041
0.000863402
0.000798273
0.00074603
0.000640164
0.000482396
0.000196095
7.78106e-05
0.0127388
0.0149267
0.0171108
0.0187719
0.0203381
0.0212118
0.0214839
0.0219807
0.0220741
0.021432
0.0208956
0.0202259
0.0192748
0.0182815
0.0166626
0.0144722
0.0124727
0.0100354
0.00697371
0.00452365
0.0108718
0.0125132
0.0142629
0.016051
0.0174201
0.0180824
0.0187378
0.0189383
0.0188865
0.0185639
0.018158
0.0174314
0.0166349
0.0154244
0.0142241
0.0124666
0.0106477
0.00842777
0.0061571
0.00358084
0.00906568
0.010518
0.0120327
0.0136212
0.0145349
0.0151526
0.0156537
0.0158652
0.0159851
0.0155429
0.0151429
0.0145926
0.0138407
0.0131957
0.0119739
0.0105224
0.0087619
0.00694381
0.00493182
0.00302029
0.00725866
0.00845395
0.00980116
0.0111312
0.0120292
0.012568
0.0128692
0.0130751
0.0129265
0.0126417
0.0121841
0.0119212
0.0112329
0.0105612
0.00956225
0.00847614
0.00709817
0.00558474
0.00378426
0.00237856
0.0057348
0.00681507
0.00785152
0.00859913
0.00915124
0.00972909
0.0101608
0.0101953
0.0100029
0.0100341
0.00976529
0.00937087
0.00863781
0.00825814
0.00763996
0.00683536
0.00547795
0.00441895
0.00281224
0.00156711
0.00399126
0.00470587
0.00563303
0.00617831
0.00655798
0.00707931
0.0072914
0.00731391
0.00724957
0.00698472
0.00702793
0.0069611
0.00648589
0.00590588
0.00531215
0.00478826
0.00370429
0.0030264
0.00208691
0.00112638
0.00237063
0.00291025
0.00322941
0.00365859
0.00424562
0.00442165
0.00447149
0.00431472
0.00445865
0.00448324
0.00428554
0.00430694
0.00375974
0.00348187
0.00316191
0.00283457
0.00223873
0.00193995
0.001111
0.000851896
0.000800848
0.000928811
0.00119563
0.00166666
0.00137695
0.00148035
0.00158806
0.00161318
0.00180367
0.00120883
0.0015368
0.00122774
0.00133574
0.00139585
0.00108254
0.00101679
0.000913624
0.000680811
0.000527477
6.66573e-05
0.0144136
0.0169753
0.0192371
0.0210958
0.0227387
0.0239476
0.0242455
0.0244087
0.0248108
0.0244018
0.0237902
0.0230571
0.0219284
0.0209654
0.0193432
0.017288
0.0151133
0.0122314
0.00928847
0.00650083
0.0122036
0.0145629
0.0164376
0.0180709
0.0195994
0.0203652
0.0209125
0.021346
0.0213098
0.0211031
0.0205511
0.0197028
0.0190972
0.0179162
0.016662
0.0147498
0.012926
0.0105083
0.00763813
0.00518485
0.0106101
0.0121666
0.0138035
0.0151442
0.0163944
0.0172248
0.017733
0.0180378
0.0177478
0.0177753
0.0174557
0.0169201
0.0162772
0.0151533
0.0138761
0.0123546
0.0107506
0.00864262
0.00649923
0.00450507
0.00846646
0.00984725
0.0113617
0.0124451
0.0134365
0.0143342
0.0144297
0.0147646
0.0148963
0.0146349
0.0141929
0.0138225
0.0132691
0.0124474
0.0113542
0.0102203
0.00890254
0.00701451
0.00507543
0.00353458
0.00664296
0.00767522
0.00895203
0.00952308
0.0105092
0.0110605
0.0113095
0.0115928
0.0114866
0.0113811
0.0112112
0.010683
0.0104254
0.00980334
0.00866558
0.00780577
0.00669511
0.00552
0.00392324
0.00273092
0.00491092
0.00532714
0.00633776
0.00702133
0.00764356
0.00812655
0.0081865
0.00815089
0.00837022
0.00812862
0.00798469
0.0075804
0.00728672
0.00694322
0.00631538
0.00542168
0.00501669
0.00397634
0.00281669
0.00165486
0.0030469
0.0032857
0.00401572
0.00415831
0.00491769
0.00491324
0.00495598
0.00511393
0.00509556
0.00501103
0.00474883
0.00508992
0.00437299
0.00427938
0.0038666
0.00374699
0.00278133
0.00228076
0.00168726
0.00109454
0.00089351
0.00107835
0.00145172
0.00152275
0.0016348
0.00186732
0.00179992
0.00160281
0.00188949
0.00163768
0.00166472
0.00165783
0.00172129
0.0014648
0.00124437
0.0012121
0.000762146
0.000922099
0.000344851
0.000228605
0.0157453
0.0183695
0.0204332
0.0226958
0.0243574
0.0255914
0.0265718
0.0266634
0.0269773
0.0266435
0.0260188
0.0255522
0.0243343
0.0229565
0.0212467
0.0191131
0.0166581
0.0138395
0.0107288
0.0079031
0.0137031
0.0155098
0.0177688
0.0196309
0.0211025
0.0222997
0.0229052
0.0231493
0.0231417
0.0230076
0.0228888
0.0218667
0.0210951
0.0197114
0.0182183
0.0165034
0.0142094
0.0119254
0.00923209
0.00680352
0.0114133
0.0131235
0.0146545
0.0165004
0.0178671
0.0187613
0.019303
0.0194396
0.0195799
0.0194714
0.0192178
0.0185193
0.0177121
0.016645
0.0154859
0.013799
0.0121836
0.00977496
0.00750713
0.00556087
0.0093711
0.0105854
0.0122342
0.0136088
0.0144719
0.0152867
0.0158313
0.016169
0.0162737
0.0160646
0.0158692
0.0152631
0.0144519
0.0138353
0.0125138
0.0113621
0.00966286
0.00783275
0.00618884
0.00445816
0.00723248
0.00829721
0.00936246
0.0105627
0.0114081
0.0121025
0.0123602
0.0125134
0.0127037
0.0123672
0.0123165
0.0118972
0.0116277
0.0107386
0.00996845
0.00877919
0.00747481
0.00636365
0.00472385
0.00327693
0.00541052
0.00600953
0.00684593
0.00751625
0.00826461
0.00878307
0.00888642
0.00903104
0.00908745
0.00899131
0.00864304
0.00862299
0.0082404
0.00777019
0.00704959
0.00639233
0.00552868
0.00459821
0.00344131
0.0022805
0.00315141
0.00364699
0.00405832
0.00441575
0.00481032
0.00535278
0.0053812
0.00560468
0.00561055
0.00578417
0.00539734
0.0053665
0.00485828
0.00471421
0.00438801
0.00401635
0.00319443
0.00271784
0.00183476
0.0014426
0.00114552
0.00108817
0.00134379
0.00157451
0.00184228
0.00192277
0.00175332
0.00195101
0.00188971
0.00188485
0.00197331
0.00180252
0.0019376
0.00159491
0.00138914
0.00148486
0.00121129
0.000891826
0.000641892
0.000532827
0.016193
0.0188051
0.0213403
0.0235393
0.0254775
0.0266369
0.0276763
0.0281021
0.0285247
0.0280195
0.0278108
0.0270169
0.0256407
0.0244351
0.0224086
0.0204116
0.0179758
0.0147412
0.0117187
0.00870071
0.0139164
0.0160108
0.0183461
0.0204704
0.0219388
0.0232952
0.0238851
0.024528
0.0245118
0.0243265
0.0239293
0.0233335
0.0222928
0.0210274
0.0194812
0.0173499
0.0153287
0.01267
0.00995403
0.00735509
0.0115031
0.0134788
0.0153791
0.0173707
0.0186648
0.019622
0.0203118
0.0207333
0.021111
0.0204927
0.0202486
0.0196616
0.0188111
0.0176888
0.0163927
0.0147381
0.0127849
0.0106141
0.00817004
0.00583495
0.00960867
0.0111229
0.0125811
0.0141297
0.0152135
0.0161421
0.0166878
0.0170827
0.0169675
0.0170181
0.0168841
0.0161704
0.0154903
0.0145942
0.0137163
0.0119684
0.0103112
0.0084615
0.00666705
0.00506503
0.00763445
0.00853385
0.00971091
0.0109355
0.0117399
0.0123996
0.0130518
0.0135065
0.0133963
0.013206
0.0131326
0.0126325
0.012233
0.0114218
0.0104218
0.00952239
0.00820366
0.00662961
0.00509207
0.00376198
0.00514198
0.0062692
0.00699595
0.00782278
0.00883651
0.00897123
0.00960314
0.00957372
0.00964722
0.00968289
0.00941039
0.00901873
0.00860803
0.00839907
0.00782493
0.00693059
0.00583226
0.00478782
0.0036073
0.00279495
0.00311254
0.00352538
0.00422653
0.00475472
0.00518791
0.00549949
0.0055554
0.00599135
0.00598111
0.00578756
0.00588387
0.00538275
0.0053878
0.00503462
0.00480106
0.00410361
0.00358121
0.00288856
0.00228817
0.0018126
0.00104206
0.00111918
0.00150031
0.00170302
0.00174587
0.00183275
0.00194033
0.00183248
0.00200856
0.00200858
0.00219819
0.00206592
0.00207781
0.00169595
0.00147432
0.00127265
0.00103918
0.00080258
0.000837597
0.000473675
0.015943
0.0187577
0.0213034
0.0236783
0.0257189
0.0271156
0.0281872
0.0289671
0.0290222
0.0288383
0.0284781
0.0275889
0.026421
0.02508
0.0231803
0.0208422
0.0178941
0.0149488
0.0116113
0.00862386
0.0134646
0.0159606
0.0184151
0.0202452
0.0221875
0.023436
0.0245822
0.0249396
0.0250556
0.0250214
0.0246332
0.0238773
0.0229594
0.0215592
0.019973
0.0178934
0.015422
0.0127246
0.00976468
0.00729498
0.0113369
0.0132318
0.0154477
0.0172032
0.0187176
0.0199068
0.0207555
0.0212041
0.021259
0.021381
0.0208602
0.0202895
0.0192828
0.0182357
0.0168237
0.0149269
0.013143
0.0107046
0.0079867
0.00610396
0.00960372
0.0107686
0.0126527
0.0139255
0.0154831
0.0160878
0.0167046
0.017531
0.0177412
0.0173146
0.0170339
0.0165854
0.0158066
0.014699
0.0137467
0.0124594
0.0106418
0.00863997
0.00654937
0.00479985
0.00734331
0.00861978
0.0098346
0.0110548
0.0121449
0.0129671
0.013254
0.0135779
0.0137457
0.0137808
0.0134543
0.013139
0.012299
0.0118514
0.0106705
0.00962551
0.00836304
0.00693937
0.00524173
0.003667
0.00540504
0.0062132
0.00699258
0.00807799
0.00884624
0.00919246
0.00952732
0.00995376
0.00997151
0.00990979
0.00979046
0.009458
0.00881283
0.00844266
0.0076278
0.00686595
0.00594898
0.00476254
0.00379831
0.00265814
0.00310993
0.00369779
0.0042397
0.00493227
0.00527526
0.00576201
0.00585281
0.0058304
0.00608873
0.00625908
0.00611901
0.00565818
0.00569346
0.00519477
0.00450214
0.00403299
0.00385662
0.00297554
0.00214368
0.00147701
0.00115182
0.0013492
0.00166312
0.00201341
0.00170314
0.00210939
0.00195973
0.00209644
0.00221668
0.00219482
0.00231945
0.00212337
0.00182138
0.00164747
0.00162427
0.00131262
0.00146491
0.00111184
0.000893521
0.000547724
0.0147061
0.0175841
0.0203786
0.0232696
0.0250945
0.0267101
0.0277861
0.0288409
0.0290562
0.028813
0.0283144
0.0276101
0.026323
0.0247202
0.0227187
0.020441
0.0172147
0.0143987
0.0111444
0.00802371
0.0126325
0.0149631
0.0176286
0.0199393
0.0217679
0.0230829
0.0242203
0.0247478
0.0251153
0.0249738
0.0245509
0.0239862
0.0226313
0.0212237
0.0197234
0.0176306
0.0151424
0.0123589
0.00929254
0.00649325
0.0106331
0.0125346
0.0147514
0.0167049
0.0183466
0.0196235
0.0204283
0.0211996
0.0210486
0.0210925
0.0209331
0.0202869
0.0194231
0.0183832
0.016475
0.0146067
0.0126192
0.0102889
0.00762956
0.00520559
0.00876755
0.0103326
0.0120685
0.0137821
0.0151334
0.0161212
0.0169315
0.0172827
0.0174127
0.0174976
0.0172938
0.0168123
0.0158599
0.0147885
0.013707
0.0121445
0.0102143
0.00810719
0.00623173
0.00430537
0.00689456
0.00786886
0.00950211
0.0108033
0.0118246
0.0124577
0.0131173
0.0134351
0.0138177
0.0135683
0.0134207
0.013241
0.0122572
0.0118347
0.0107717
0.00948897
0.00783994
0.00644745
0.00472983
0.00340122
0.0047453
0.00583279
0.00681161
0.00787979
0.00869524
0.00906115
0.00933008
0.0097507
0.00990906
0.00979225
0.00974086
0.00958921
0.00889095
0.00834371
0.00766212
0.00659424
0.00571157
0.00445643
0.00341042
0.00214939
0.00304184
0.00349286
0.00408581
0.00449099
0.00513729
0.00575706
0.00595703
0.00607508
0.00597935
0.00618411
0.00588022
0.00563695
0.0054425
0.00522366
0.00469928
0.00420196
0.0036731
0.00290244
0.00218947
0.00122123
0.000947112
0.00121366
0.00122876
0.00180307
0.0016203
0.00193047
0.00173258
0.00197997
0.00190319
0.00220377
0.00205907
0.00200358
0.00191687
0.00176235
0.00143765
0.00127791
0.00131104
0.000987783
0.000511604
0.000473725
0.0130035
0.0159128
0.0189325
0.0216947
0.0238002
0.0255448
0.0271304
0.0277345
0.0279301
0.0281438
0.0277346
0.0266687
0.025513
0.0239997
0.0217666
0.0193533
0.016362
0.0130723
0.00953549
0.00630116
0.011224
0.0134287
0.0161485
0.0185993
0.0205553
0.0221156
0.0232035
0.0238447
0.0242107
0.0242511
0.0236297
0.0229169
0.0219193
0.0207203
0.0187121
0.0165177
0.0140778
0.0109202
0.00815475
0.00526284
0.00925518
0.0113254
0.0136583
0.0154531
0.017488
0.018888
0.0196399
0.0204083
0.0205226
0.0205282
0.0204012
0.0197125
0.018747
0.017345
0.0158567
0.013757
0.0116553
0.00920596
0.00646151
0.00417281
0.0076347
0.00912161
0.0110054
0.0128319
0.014236
0.0153486
0.0161841
0.0166098
0.0169792
0.01671
0.0165928
0.0161928
0.0152601
0.0142042
0.0129318
0.0112783
0.00959408
0.00759004
0.00498965
0.00346659
0.00597718
0.00725505
0.00877549
0.010203
0.011248
0.0120482
0.0127756
0.0129886
0.0132897
0.0132918
0.0130843
0.0126947
0.0120573
0.0112772
0.0100757
0.00890818
0.00720802
0.00566126
0.00406825
0.0025978
0.00428851
0.00523604
0.00623359
0.00713449
0.0080838
0.00857448
0.00919893
0.00944835
0.00968495
0.00966472
0.00940437
0.00933118
0.0088465
0.00804922
0.00723671
0.00649582
0.00519831
0.00433701
0.00289568
0.00178284
0.00253041
0.00312952
0.00361848
0.00442679
0.00494142
0.00532972
0.00549061
0.00591811
0.00586967
0.0059557
0.00604155
0.0056708
0.00544258
0.0050559
0.00449159
0.0039632
0.00315557
0.00252127
0.00133586
0.000967265
0.00109286
0.00107934
0.00139297
0.0013509
0.00173535
0.00192545
0.00204842
0.00189416
0.00199234
0.00192381
0.00192029
0.00174338
0.00175819
0.00184326
0.0014642
0.00130927
0.0011043
0.000592348
0.000191851
0.000169326
0.0104464
0.0130828
0.0165234
0.0192788
0.0216935
0.023595
0.0247633
0.0260417
0.0263603
0.0261611
0.0258415
0.0248818
0.0238119
0.0221626
0.0200471
0.0172651
0.0144716
0.0110324
0.00739199
0.00394838
0.00850677
0.0113692
0.0142111
0.0165112
0.0188537
0.0204088
0.0215021
0.0224625
0.0225186
0.0226094
0.0223432
0.0216607
0.0204739
0.0190461
0.0172655
0.0146496
0.0122172
0.00930599
0.00595905
0.00307999
0.00727312
0.00929381
0.0118059
0.0138874
0.015752
0.0174506
0.0181956
0.0189095
0.0192532
0.0192061
0.018995
0.0182755
0.0171441
0.0159461
0.0142892
0.0124729
0.0102264
0.00769829
0.00489982
0.00246389
0.00569764
0.00754204
0.00955966
0.0113672
0.0128284
0.0141173
0.0149083
0.0157866
0.0158777
0.0155973
0.0155079
0.0149803
0.0141898
0.0130551
0.0117316
0.0103726
0.00815819
0.0060391
0.00364893
0.00183524
0.00439987
0.00586123
0.00746471
0.00891177
0.0102297
0.0110721
0.0115852
0.0121993
0.0124037
0.0124435
0.012177
0.0117256
0.0110619
0.0102516
0.00912442
0.00784291
0.00638249
0.00467835
0.00295832
0.00133926
0.00320778
0.0040799
0.00523141
0.00631516
0.00724193
0.00785881
0.00852273
0.00868193
0.0089713
0.00894599
0.00874078
0.00851162
0.00807967
0.00730331
0.00660096
0.00561926
0.00452928
0.00346868
0.00191885
0.000692278
0.00188635
0.00255519
0.00322752
0.0037892
0.00437174
0.00483638
0.00523796
0.00544017
0.00556201
0.00557349
0.00531772
0.00519333
0.00495136
0.00458498
0.00409589
0.00350084
0.00273306
0.00216385
0.0013422
0.000539761
0.00048725
0.000747041
0.0011709
0.00139744
0.00152958
0.00188464
0.00169846
0.00201109
0.0017448
0.00201953
0.00178936
0.00198334
0.00154513
0.00156336
0.00146811
0.00110838
0.00107859
0.000571419
0.000277483
6.73059e-05
0.006955
0.0100744
0.0132163
0.0162671
0.0187391
0.0206657
0.022331
0.0232627
0.0237292
0.0237624
0.0232163
0.0222136
0.0212392
0.019422
0.0172464
0.0144597
0.0116814
0.0082287
0.00426869
0.000758322
0.00602725
0.00845263
0.0114464
0.0138201
0.0160068
0.0177692
0.0190996
0.02
0.0204054
0.0205317
0.0202069
0.0192967
0.0182268
0.0167601
0.0146578
0.0124021
0.00960669
0.00670688
0.00315789
0.000320282
0.00459651
0.00684598
0.00937295
0.011569
0.0135836
0.0149707
0.0162408
0.0167437
0.0173945
0.017431
0.0171249
0.0162318
0.0153388
0.0141507
0.0125678
0.0103016
0.00807271
0.00542814
0.00248227
1.02803e-05
0.00389812
0.00569468
0.00776315
0.00934952
0.0110708
0.0120568
0.01329
0.0138642
0.0141476
0.0142019
0.013974
0.0134297
0.0125076
0.0113018
0.0100137
0.00850419
0.00636442
0.00424972
0.00185124
0.000436318
0.0027723
0.00431097
0.00589557
0.00726683
0.00862284
0.00929304
0.01029
0.0106506
0.0109501
0.0111205
0.0109388
0.0105899
0.00964348
0.00895552
0.0078286
0.00645027
0.00514824
0.00321302
0.00102773
0.000438308
0.00182183
0.00295682
0.00420509
0.00509873
0.00612224
0.00691476
0.007505
0.00787356
0.00820196
0.00829054
0.00784994
0.00748419
0.00714486
0.00634929
0.00559951
0.00479208
0.00348858
0.00234163
0.00110539
0.000245119
0.00114838
0.0017038
0.00243196
0.00315123
0.00382939
0.0042216
0.00457538
0.00473701
0.00491401
0.00479103
0.00483283
0.00464866
0.00433228
0.00399723
0.00345349
0.00283906
0.00202818
0.00138513
0.000475956
0.00043557
0.000453248
0.000575351
0.00088179
0.00100864
0.00115556
0.00136615
0.00145372
0.00171937
0.00180065
0.00166312
0.00156616
0.00158606
0.00140792
0.00127865
0.00111142
0.000985925
0.000853293
0.00024626
9.00104e-05
5.82851e-06
0.00278554
0.00600697
0.00945009
0.012394
0.0151334
0.0169249
0.0185985
0.0198156
0.0203153
0.020337
0.0199973
0.0190212
0.0176495
0.0159372
0.0137087
0.0108252
0.00793835
0.00421296
0.00029612
0.00321291
0.00199973
0.00490419
0.00785922
0.010422
0.0128114
0.0145536
0.0160289
0.0168587
0.017389
0.0176887
0.0169561
0.0163504
0.015092
0.013636
0.0117429
0.00928562
0.00637843
0.00332049
0.000183694
0.0032559
0.00135307
0.00377913
0.00618923
0.00861061
0.010564
0.0120725
0.0133609
0.0141904
0.0148624
0.0148078
0.0144183
0.0134829
0.0128245
0.0112989
0.00941563
0.007341
0.0051776
0.00229349
0.000487074
0.00316335
0.000792861
0.0029624
0.0051084
0.00696472
0.00841583
0.00962074
0.011135
0.0113642
0.0119315
0.0118689
0.0118282
0.0114967
0.0104162
0.00917379
0.00771211
0.00597137
0.00402517
0.00184065
0.000719459
0.00259323
0.000626976
0.00196085
0.00392937
0.00550693
0.00668735
0.00754957
0.00858542
0.00921399
0.00937565
0.00929529
0.00924362
0.00892383
0.00819943
0.0072352
0.00591843
0.00479484
0.00327854
0.00105177
0.000707455
0.00233494
0.000374069
0.00147527
0.00260699
0.00398285
0.00469559
0.00524587
0.00620454
0.00637282
0.00682533
0.00666913
0.00668975
0.00637616
0.00578826
0.00520281
0.00430606
0.00322474
0.00216275
0.000736317
0.000484395
0.00179622
0.000392758
0.00101324
0.00170967
0.0022581
0.00273372
0.00349757
0.00379861
0.00401614
0.00438365
0.00415947
0.00400821
0.00379359
0.00354767
0.00317235
0.00256715
0.00194015
0.00139644
0.000449911
0.000433794
0.00123849
5.85888e-05
0.00022364
0.000404373
0.000815522
0.000980993
0.00124687
0.0014253
0.00155576
0.00145444
0.00145126
0.00129321
0.00141588
0.00131417
0.00108349
0.000953757
0.000665707
0.000446307
1.20024e-05
0.000129521
0.000423044
0.00209671
0.00112701
0.00468438
0.00790859
0.0102787
0.0126669
0.0143957
0.0152679
0.0158786
0.0160734
0.0157666
0.014857
0.0136395
0.0116981
0.00943033
0.00653291
0.0035463
0.000167942
0.0039314
0.00764585
0.00232794
0.000604144
0.00349391
0.00621156
0.00888509
0.0105637
0.0121828
0.0128994
0.0136919
0.0139912
0.0133253
0.0124861
0.0114779
0.00990012
0.00762276
0.00501663
0.0023422
0.000775021
0.00431849
0.00730841
0.00225299
5.37209e-05
0.00268876
0.00499452
0.00698027
0.00888313
0.00999339
0.0108088
0.0114298
0.0117445
0.0110124
0.0107699
0.00951952
0.00802091
0.00635524
0.00433385
0.00160474
0.000965148
0.00389264
0.00662836
0.00212515
0.000335804
0.00187962
0.004045
0.00545692
0.00702011
0.00806708
0.0088491
0.00923862
0.00922533
0.00887965
0.00852553
0.00763231
0.00645497
0.00505146
0.00333226
0.00119877
0.00115107
0.00357597
0.0057519
0.00191971
0.000559252
0.00149091
0.00277808
0.00416514
0.00536547
0.00624602
0.00691324
0.00724264
0.0073659
0.00704502
0.00660164
0.00583905
0.00515768
0.00379722
0.00242075
0.000758398
0.00113376
0.00304034
0.00464438
0.00125836
0.000421102
0.00112086
0.00217504
0.00292652
0.00380067
0.00454654
0.00506649
0.00519354
0.00541995
0.0052376
0.00475917
0.00412768
0.00344134
0.00267793
0.00153121
0.000422472
0.000968554
0.00232472
0.00335455
0.000868236
0.000275984
0.000649591
0.0011634
0.0018134
0.00239817
0.00265371
0.00297997
0.00287692
0.00315588
0.00311546
0.00291882
0.00272437
0.00207472
0.00146116
0.00121867
0.000264549
0.000504821
0.00139019
0.00219229
0.000368862
0.000129688
0.00035186
0.000373268
0.000519976
0.000771722
0.000744905
0.00094861
0.0010765
0.00113947
0.00108984
0.00104162
0.00078787
0.000905287
0.000523793
0.000396706
5.28155e-05
3.91075e-05
0.000603681
0.000773096
0.00779324
0.0043854
0.000787611
0.0022814
0.00492738
0.00721141
0.00904768
0.0103782
0.0109338
0.0111508
0.0108436
0.0097618
0.00844757
0.00665585
0.00423061
0.00167363
0.00191748
0.00539456
0.00952394
0.0132506
0.00724694
0.00463573
0.00122338
0.00153985
0.00407046
0.00584786
0.00736971
0.0087242
0.00900402
0.00927393
0.00882888
0.00829312
0.00699994
0.00540783
0.00322439
0.000735649
0.00207553
0.0054163
0.00881859
0.0118447
0.00669156
0.00432252
0.00151951
0.000861713
0.00299119
0.00463418
0.00583727
0.0067736
0.00755021
0.00738005
0.00721218
0.0065665
0.0054938
0.00420365
0.00227842
0.000398814
0.00225916
0.00504814
0.0080987
0.0106662
0.00569004
0.00386382
0.00150598
0.000388101
0.00232609
0.00376433
0.00469698
0.00560154
0.00585767
0.00587704
0.00568019
0.00527034
0.00424162
0.0033339
0.00170543
7.33729e-06
0.00217235
0.00454315
0.00698038
0.00906186
0.00469637
0.00313077
0.00138828
1.89253e-05
0.00160337
0.00269925
0.00376949
0.0041743
0.00457393
0.00455032
0.00447849
0.00394003
0.0033192
0.00233674
0.00136694
0.000160216
0.00194607
0.00374388
0.00578657
0.00745004
0.00374419
0.00233567
0.00116264
2.90175e-05
0.00107344
0.00201294
0.0023093
0.00281119
0.00322927
0.00345565
0.00322396
0.00301117
0.00247013
0.00183622
0.000679879
0.000241078
0.0014044
0.00294625
0.00437581
0.00559941
0.00217082
0.00182303
0.000807098
0.000170968
0.000577628
0.00108687
0.00155619
0.00203819
0.00196756
0.00182421
0.00198261
0.00185252
0.00136404
0.00101217
0.000377789
0.000347668
0.000798995
0.00168508
0.00282669
0.00345345
0.000831641
0.000652627
0.000135623
7.43755e-05
0.000214243
6.52651e-06
0.000685966
0.000468437
0.000644614
0.000698681
0.000546915
0.000590159
0.00039068
0.000367644
0.000108756
0.000220636
0.000131923
0.000329012
0.000889268
0.00127152
0.0139722
0.0107188
0.00672512
0.00366452
0.000974771
0.00127916
0.00320332
0.00437698
0.00517526
0.00532606
0.00497205
0.00400985
0.00266786
0.00103922
0.00143357
0.00428621
0.00774432
0.0112852
0.0153475
0.0190594
0.0127474
0.0099359
0.00669757
0.00371935
0.00139831
0.000646703
0.00231408
0.00340125
0.00410926
0.00422447
0.0037722
0.00321049
0.00189724
0.000100812
0.00195922
0.00428135
0.00738902
0.0105502
0.0140249
0.0171871
0.0114711
0.00900029
0.00632573
0.00384632
0.00161015
0.000118877
0.00154368
0.00252318
0.00283903
0.00323172
0.00290702
0.00213519
0.00128673
0.000225472
0.00187297
0.00416675
0.00662468
0.00952793
0.0127126
0.0153216
0.0099884
0.00795599
0.00555298
0.00334414
0.00167108
4.50687e-05
0.00109491
0.00208051
0.00231936
0.0023049
0.00213965
0.00166499
0.0006185
0.00026947
0.00215954
0.00387904
0.00591977
0.00842157
0.0107028
0.0129937
0.0080399
0.0064799
0.00478304
0.00287001
0.00148679
0.000406866
0.000699124
0.00123455
0.00160191
0.00182384
0.00151285
0.00103912
0.000313201
0.000508562
0.00182777
0.00316932
0.00500453
0.00689849
0.00888158
0.0105227
0.00607604
0.00496329
0.0035497
0.00212499
0.00130444
0.000405914
0.000503214
0.000985576
0.00122168
0.00113186
0.00102419
0.000563926
0.000300114
0.000506253
0.00143564
0.00245555
0.0036113
0.00513722
0.00645363
0.00786322
0.00372158
0.00305373
0.00189896
0.00145638
0.000913782
0.000609828
3.87492e-06
0.000515123
0.000644111
0.000804551
0.0004026
0.000528196
3.6663e-06
0.000297541
0.000936286
0.00167438
0.00227739
0.00316873
0.00398959
0.00492985
0.00141586
0.00113443
0.000749245
0.000469806
0.000196026
0.000224516
2.16816e-05
1.7853e-05
0.000129627
0.000286234
0.000117016
5.97665e-05
1.35575e-05
2.15942e-05
0.000357313
0.000745046
0.000796213
0.000944899
0.00146058