/*--------------------------------*- C++ -*----------------------------------*\
| =========                 |                                                 |
| \\      /  F ield         | OpenFOAM: The Open Source CFD Toolbox           |
|  \\    /   O peration     | Version:  2212                                  |
|   \\  /    A nd           | Website:  www.openfoam.com                      |
|    \\/     M anipulation  |                                                 |
\*---------------------------------------------------------------------------*/
FoamFile
{
    version     2.0;
    format      ascii;
    arch        "LSB;label=32;scalar=64";
    class       volScalarField;
    location    "0";
    object      stateMean;
}
// * * * * * * * * * * * * * * * * * * * * * * * * * * * * * * * * * * * * * //

dimensions      [0 0 0 1 0 0 0];

internalField   nonuniform List<scalar> 
3200
(
327.328
325.175
325.8
326.343
326.794
325.258
325.659
326.908
327.593
327.772
326.17
327.709
326.223
325.144
326.427
326.752
324.85
325.602
325.633
326.657
322.48
321.498
322.031
320.623
321.665
322.989
323.854
323.43
323.503
324.875
323.539
324.125
324.5
323.834
322.251
322.824
322.201
322.095
321.608
322.683
320.416
318.547
317.305
318.303
317.487
317.901
320.183
322.56
320.435
319.9
322.352
321.112
319.749
318.933
320.803
319.666
319.153
319.416
318.745
318.082
315.92
315.266
315.328
315.584
314.229
314.899
314.352
315.494
316.357
316.771
317.617
318.201
315.736
317.182
316.249
316.595
314.994
315.299
316.383
318.303
312.585
312.668
312.082
312.121
312.841
312.222
312.687
310.899
313.734
312.011
312.901
314.948
313.703
312.427
312.94
311.32
313.214
312.002
312.871
313.18
307.5
306.534
308.062
308.485
309.465
308.991
308.067
309.666
310.057
309.734
308.922
309.179
308.771
309.376
308.664
309.278
311.131
308.397
309.192
308.182
304.166
304.697
304.46
304.396
303.007
305.541
305.599
305.798
305.896
305.138
306.876
304.624
305.463
304.761
304.407
305.666
305.066
304.716
304.049
305.275
301.75
301.456
302.248
300.693
301.367
301.065
303.281
301.619
302.126
301.847
300.955
302.931
301.526
301.64
302.047
301.421
302.402
301.922
303.452
300.444
325.413
324.385
326.489
326.507
326.313
325.218
326.373
325.704
327.472
328.015
328.763
326.227
326.696
327.394
325.32
327.446
326.666
325.396
325.292
326.982
322.133
322.751
321.656
323.589
322.468
324.52
324.408
325.093
323.109
325.687
326.434
323.676
325.617
323.499
324.981
321.284
323.735
320.438
322.918
322.941
317.775
318.678
317.811
317.528
318.002
319.177
319.463
319.951
318.651
320.882
321.526
321.007
321.515
319.653
318.456
321.37
319.086
319.709
318.747
318.751
316.496
316.474
314.367
315.026
315.122
315.292
315.306
317.671
316.249
316.08
316.86
317.517
316.142
315.774
315.001
316.059
316.72
315.852
315.82
315.175
310.079
312.551
310.647
311.386
311.951
312.213
312.703
311.504
312.912
313.462
314.333
314.337
313.046
311.717
312.675
312.442
310.039
313.096
310.539
312.063
309.427
308.28
308.694
308.457
309.719
308.167
309.869
307.416
309.414
309.244
309.445
311.143
309.428
308.935
309.309
308.958
309.72
307.963
308.451
308.204
305.281
305.06
305.343
305.206
304.251
305.544
305.998
305.609
304.957
305.449
305.208
305.125
305.711
305.616
305.378
305.282
304.606
304.889
306.848
305.122
303.519
300.97
301.396
301.566
302.177
302.894
301.951
304.309
302.841
300.993
302.385
302.097
302.221
301.772
302.281
302.3
301.099
301.86
302.586
300.535
328.068
326.351
324.365
326.197
324.869
325.679
326.563
327.508
326.688
328.231
328.333
327.616
327.609
325.891
327.096
326.279
326.678
326.307
327.382
325.517
323.177
322.902
322.2
322.674
321.384
323.566
322.028
323.56
323.155
326.836
326.85
324.991
326.117
322.998
323.697
321.956
322.511
322.258
321.592
323.672
321.475
319.226
317.921
318.929
319.42
318.931
320.681
320.441
320.193
320.665
320.158
320.262
321.202
320
319.882
320.873
320.3
318.034
317.977
319.224
315.183
315.641
314.607
315.069
314.191
317.202
315.861
316.968
317.631
316.636
317.425
316.551
318.374
318.201
316.237
315.94
314.553
315.847
315.194
315.774
314.449
312.469
312.631
310.746
311.075
314.051
312.999
314.084
313.648
313.445
313.898
313.369
314.874
312.397
311.907
314.592
313.978
312.547
313.867
311.978
307.699
307.67
308.711
308.342
309.143
308.182
309.147
308.215
309.123
310.551
309.459
308.342
308.48
308.833
309.642
308.85
309.192
308.188
309.445
309.227
305.677
306.769
304.011
306.089
305.943
306.023
304.761
305.256
305.375
305.831
306.367
305.617
306.901
305.799
305.038
304.701
304.666
306.645
305.397
304.219
301.604
302.549
300.779
301.224
299.594
302.864
301.938
302.213
301.513
300.716
300.554
301.241
301.684
300.716
302.562
302.294
301.884
300.192
301.93
303.074
327.112
325.626
323.812
325.264
326.213
325.637
327.427
328.048
329.292
327.613
328.851
328.454
328.278
328.32
328.086
327.009
325.336
325.933
326.309
327.315
324.35
322.686
323.204
323.217
322.666
325.053
324.533
325.357
324.627
326.619
326.059
324.496
325.485
324.803
325.279
322.567
323.99
321.633
323.29
323.946
319.6
319.527
319.124
318.584
320.316
318.714
320.933
320.546
320.587
321.908
321.164
323.129
321.619
320.46
319.873
319.284
318.291
320.548
320.877
318.712
315.165
314.18
316.119
314.61
315.058
316.401
317.086
317.204
316.471
316.166
318.256
316.917
317.47
317.549
316.609
316.138
315.625
315.339
315.162
316.11
311.47
313.085
312.342
310.567
312.297
312.429
313.287
313.161
313.402
314.77
313.465
313.565
313.088
312.605
311.891
314.31
311.231
312.294
311.173
312.677
308.187
308.816
306.934
308.607
308.939
307.576
308.558
309.823
310.217
309.676
310.012
310.195
309.974
309.234
308.94
310.207
308.619
309.361
308.254
309.156
304.455
306.028
305.725
305.258
306.328
306.322
306.568
305.171
305.991
307.535
306.336
305.927
307.244
305.573
306.284
305.389
305.775
303.724
305.315
306.094
301.382
300.978
302.049
302.015
300.729
302.097
302.697
300.812
300.731
301.528
302.378
301.651
300.595
302.336
301.5
301.826
301.724
302.04
302.1
303.008
325.873
326.115
326.504
326.23
327.25
328.749
326.454
327.996
327.717
328.723
329.218
329.608
328.548
328.386
330.367
326.874
326.838
326.223
326.302
327.296
322.945
322.64
323.53
321.888
323.186
323.556
325.249
325.891
324.953
326.687
325.587
325.729
326.858
325.518
323.272
324.687
324.184
323.327
322.624
323.763
319.015
319.787
318.416
319.017
319.161
319.25
320.862
321.706
320.804
322.863
321.678
321.39
321.475
320.478
321.38
320.57
319.915
319.528
319.452
321.499
316.733
317.841
315.615
317.154
317.134
314.907
317.453
317.789
316.437
317.487
318.38
316.79
318.613
317.399
315.918
315.958
316.346
315.617
315.791
316.816
313.797
313.026
314.165
311.591
312.584
312.844
313.087
313.897
313.582
313.103
313.866
312.58
313.218
314.353
313.193
312.321
312.183
311.53
311.73
314.145
309.455
310.981
308.389
308.642
308.657
308.433
309.23
308.997
311.238
307.822
309.595
309.733
311.636
309.21
310.042
309.265
308.237
308.848
308.152
309.404
305.664
305.349
305.894
304.712
304.468
307.005
306.072
305.336
306.559
305.363
305.819
306.145
306.271
307.547
305.614
306.303
305.59
305.103
305.608
304.787
302.617
302.985
301.14
301.181
301.59
302.705
302.43
301.767
301.103
301.977
301.653
302.348
301.625
301.339
302.123
301.222
303.193
301.289
302.061
300.66
328.576
327.623
326.624
327.29
328.096
327.669
328.384
328.891
329.897
332.065
330.451
330.517
331.601
331.151
329.013
329.546
327.523
326.255
327.886
329.087
323.833
324.016
323.847
324.926
323.681
325.346
324.842
325.773
325.846
326.517
326.385
327.288
326.437
325.712
325.372
324.957
324.438
325.536
324.212
324.942
320.378
319.664
321.267
319.222
320.876
322.061
321.747
321.465
319.999
321.977
321.381
322.154
321.089
321.51
322.979
320.539
320.553
319.216
321.274
321.039
315.824
317.379
316.742
316.873
317.14
318.432
316.351
316.868
317.459
318.422
319.179
317.963
318.144
317.786
316.99
317.05
317.313
315.786
315.993
317.006
313.117
312.112
313.087
313.476
313.406
312.503
314.104
314.936
314.833
312.442
314.758
314.645
313.888
312.259
314.092
315.057
314.689
314.512
312.182
311.91
309.738
309.109
308.189
308.956
310.07
309.255
311.068
308.764
311.238
310.648
311.23
311.186
309.674
311.533
309.495
310.275
308.341
306.747
311.08
308.773
307.01
306.455
304.956
304.26
306.383
304.892
305.494
305.091
307.569
307.957
305.429
305.376
305.896
305.427
305.022
305.671
304.972
305.066
305.888
306.877
302.657
301.16
302.304
301.909
301.278
302.638
302.531
301.307
300.456
301.342
302.893
301.435
302.969
301.76
302.682
302.289
301.197
302.038
302.655
303.358
328.514
327.365
328.805
328.876
327.983
329.772
330.21
329.74
330.393
331.613
331.96
331.51
330.12
329.942
327.221
329.448
329.762
328.216
327.299
329.802
324.931
324.353
324.229
323.792
325.082
323.142
326.262
325.552
327.973
325.8
327.242
327.603
327.035
325.299
324.594
325.273
324.705
323.884
325.117
323.747
319.618
322.4
320.211
320.709
319.751
320.855
321.647
321.942
322.55
321.343
323.796
323.768
322.747
321.605
322.561
321.1
321.034
320.446
318.91
320.385
317.452
316.355
317.647
317.702
316.674
318.303
318.591
318.75
320.472
318.542
318.17
319.646
318.021
319.866
316.867
318.318
317.47
316.762
317.208
318.465
314.316
312.966
313.185
312.755
311.458
313.539
314.734
314.241
315.148
313.572
313.594
314.234
314.197
315.38
313.73
312.543
312.634
314.413
313.538
313.963
310.482
310.505
309.023
309.447
309.194
308.697
308.202
310.529
309.495
311.411
310.169
309.663
308.977
309.793
309.347
309.572
308.987
309.069
308.886
309.064
305.771
306.87
303.453
304.464
306.424
306.234
304.873
306.179
306.231
307.499
305.804
305.762
306.421
307.086
305.577
305.831
305.129
306.565
306.286
305.288
302.332
300.413
301.469
301.533
302.083
301.698
301.21
300.519
301.627
300.926
302.139
301.695
302.178
301.102
301.967
303.089
303.166
302.904
302.382
303.169
328.253
328.451
330.995
330.356
329.306
330.334
330.947
330.978
330.96
332.231
332.15
332.007
332.986
330.647
329.861
329.803
328.884
328.291
330.28
330.21
326.964
324.383
324.711
325.35
325.118
326.252
325.993
326.469
328.407
327.153
326.917
327.763
327.156
326.492
326.407
324.814
325.388
325.123
324.567
324.989
320.272
321.597
320.689
319.83
322.185
321.802
323.106
323.498
322.532
323.526
323.458
322.913
322.791
323.75
322.706
323.697
321.727
320.576
321.614
321.524
318.778
316.982
318.121
317.398
317.919
317.388
318.099
318.366
319.598
319.101
319.199
319.14
319.947
318.895
319.571
317.332
317.52
318.244
317.274
317.284
313.833
313.98
314.05
313.498
313.176
314.948
313.586
314.475
315.284
315.254
315.068
314.652
314.934
315.469
316.192
312.488
312.48
314.258
313.41
314.905
309.78
309.846
308.784
310.537
310.688
309.764
309.145
312.147
311.86
311.494
311.229
312.314
309.47
311.012
310.584
309.18
310.5
309.836
309.589
311.086
307.339
305.219
305.418
306.24
306.333
304.99
305.965
306.323
307.239
306.296
306.439
307.435
307.696
307.647
304.71
305.934
306.003
305.555
307.263
306.187
302.339
302.787
302.04
302.277
301.944
300.51
301.606
302.086
303.151
303.375
302.307
301.901
302.039
301.992
301.975
301.414
301.941
302.005
302.229
300.945
331.044
330.594
329.586
329.339
328.899
330.725
332.421
330.345
331.698
333.285
333.676
333.42
332.3
331.537
330.868
331.456
331.085
329.54
330.309
329.753
326.937
325.012
325.141
324.901
326.68
327.958
325.714
326.488
327.964
328.174
330.881
329.653
327.599
326.95
327.295
326.66
327.016
325.391
325.678
326.947
321.779
321.063
322.584
321.556
323.767
322.9
322.465
324.953
324.829
324.166
323.804
324.568
323.848
323.331
322.768
323.26
322.019
322.287
322.408
321.81
318.073
317.627
317.248
317.239
318.428
317.987
317.681
318.521
321.325
319.287
320.921
319.374
319.645
318.573
319.678
319.029
320.377
317.496
317.412
316.088
313.245
314.902
313.907
312.09
314.224
314.376
315.229
315.87
315.136
314.691
315.824
316.198
315.399
315.287
315.357
315.052
314.635
313.956
314.586
315.227
309.922
309.205
308.948
309.772
310.735
310.841
311.456
311.652
310.328
312.267
311.387
310.163
311.575
311.817
310.698
311.498
311.564
309.412
310.367
309.153
306.639
304.627
305.593
306.992
306.954
305.795
307.117
305.912
307.864
307.475
305.558
306.705
305.999
306.325
307.4
307.017
305.214
306.603
306.802
306.026
300.82
302.308
300.352
302.334
301.595
301.919
301.568
303.037
302.548
302.699
300.607
301.831
303.598
301.594
301.241
302.1
301.881
303.122
300.785
302.757
330.623
330.398
330.869
330.471
331.666
330.47
330.696
332.845
332.095
334.083
334.532
334.242
334.332
333.526
333.888
330.463
330.534
331.687
331.05
331.401
328.22
326.295
325.992
326.365
327.928
327.469
328.281
327.874
329.533
328.596
328.101
330.622
327.696
327.649
326.723
326.413
326.405
326.587
326.368
326.753
324.708
324.113
323.529
321.848
322.444
324.386
325.08
325.291
325.182
327.135
325.704
324.981
326.233
324.033
323.459
322.922
322.983
325.242
322.153
322.957
319.168
318.426
318.024
317.016
318.828
319.38
319.853
320.731
320.764
322.115
320.854
319.959
320.823
319.763
319.885
319.331
317.489
318.805
319.495
317.502
314.348
315.814
316.032
313.932
315.256
313.885
314.543
315.219
315.449
316.441
316.603
315.74
316.243
313.972
315.275
316.638
316.721
315.492
315.146
314.96
311.784
310.379
309.657
307.779
312.181
311.759
309.819
310.74
312.036
310.585
310.945
313.295
311.523
310.561
310.622
312.201
310.576
312.065
310.005
311.18
306.741
306.204
307.491
305.196
306.859
305.676
306.569
305.997
305.523
306.716
307.224
306.455
307.063
309.179
306.098
306.021
305.509
306.144
306.64
305.809
301.188
301.751
302.412
302.265
302.595
303.038
303.738
301.929
302.467
302.656
303.647
302.997
301.476
301.898
302.515
303.117
301.838
301.766
301.745
301.563
332.474
331.101
331.413
331.586
331.721
332.443
333.298
333.468
333.911
334.848
335.804
334.265
335.89
335.199
332.776
331.528
330.56
331.92
331.516
332.131
328.036
326.289
328.689
327.121
328.312
327.882
328.431
328.222
329.87
328.444
328.281
330.966
328.43
328.697
327.862
327.552
327.286
328.629
326.306
326.909
323.339
324.846
322.078
324.38
322.793
322.277
325.185
325.089
327.232
325.143
326.028
326.271
324.873
324.457
324.816
324.432
324.613
323.385
323.24
324.047
319.324
319.744
319.657
319.246
319.908
319.94
319.847
320.941
321.901
321.699
320.147
321.659
320.916
320.799
319.811
320.586
319.989
318.319
317.799
321.226
315.163
314.271
315.184
314.747
314.987
316.054
314.7
315.935
315.396
315.515
318.436
316.67
315.207
316.601
315.302
316.191
314.361
314.183
314.67
316.299
310.739
312.421
310.848
310.53
310.598
311.613
310.701
310.709
310.638
310.391
313.295
311.083
311.786
311.907
309.758
312.191
311.52
310.882
308.895
310.752
307.835
305.972
307.743
308.303
306.679
307.586
308.335
306.875
305.932
306.851
306.536
306.782
306.847
307.492
306.452
305.822
306.871
306.543
306.368
305.596
302.992
303.07
302.796
303.646
300.375
302.824
302.902
301.288
302.892
302.994
302.346
302.573
302.815
300.548
301.385
300.443
302.081
300.987
303.98
303.068
332.681
332.766
332.043
334.387
332.206
333.109
333.171
333.619
334.305
335.726
334.423
334.043
334.178
336.387
334.287
333.339
332.541
333.444
333.513
333.432
329.383
329.593
327.191
328.582
327.282
329.718
328.935
330.255
330.767
329.828
330.022
329.471
330.874
328.975
329.688
329.598
328.37
328.242
328.061
329.461
324.673
324.572
323.647
325.011
323.879
324.843
323.626
325.187
326.316
326.013
326.375
325.812
324.494
324.985
326.338
324.286
323.68
323.957
323.644
324.967
319.983
320.216
320.214
320.353
320.041
320.89
320.467
318.903
320.883
321.708
321.61
321.842
321.601
320.111
320.613
320.227
320.547
318.116
319.92
319.569
316.974
315.77
316.301
316.227
313.94
315.162
316.319
316.442
315.792
315.939
316.697
315.745
317.882
316.711
314.584
316.488
315.896
313.62
315.445
316.826
309.122
310.734
310.951
311.961
309.994
311.583
311.508
311.571
311.583
311.621
312.415
312.303
312.522
312.186
312.432
310.323
311.636
310.867
310.944
312.037
306.896
307.778
307.385
305.938
306.929
306.307
305.874
306.093
306.84
305.869
306.425
306.249
308.467
306.724
306.853
306.948
306.652
305.577
305.226
307.814
302.582
303.87
302.117
302.486
302.845
302.725
302.461
301.754
303.42
302.085
303.208
302.616
301.988
301.012
302.474
301.789
302.408
302.496
302.902
301.729
334.508
334.857
333.928
333.241
333.947
333.6
335.13
333.991
334.545
335.23
335.904
334.899
335.877
334.338
335.596
334.855
333.01
332.709
333.937
334.783
328.328
328.616
329.467
328.435
328.646
329.693
330.038
329.695
330.908
329.86
329.789
331.834
330.085
331.583
329.412
330.252
329.073
329.399
328.356
329.426
324.089
325.432
326.1
325.191
326.637
323.192
326.136
324.539
325.902
327.763
326.177
325.838
325.897
325.868
326.495
325.343
323.526
323.748
324.634
325.701
320.228
320.477
319.901
320.235
320.608
321.723
321.844
322.279
320.926
322.889
323.08
323.511
320.494
320.766
322.274
321.597
320.327
319.126
320.931
320.486
314.691
316.793
315.164
317.226
315.118
316.361
316.884
316.154
316.739
317.85
316.682
317.318
317.802
317.653
316.416
317.052
317.162
315.953
314.587
315.658
310.075
312.716
312.784
311.271
311.333
313.248
312.064
312.296
312.535
311.858
311.082
310.175
311.643
310.567
310.683
309.862
310.591
310.845
311.841
311.537
307.517
306.148
307.22
307.969
305.841
307.838
306.557
307.263
306.384
307.195
308.7
307.442
306.855
307.397
307.321
307.975
307.294
306.807
306.733
306.785
302.648
301.313
303.484
301.373
302.532
302
301.47
303.395
302.628
301.378
302.708
301.838
303.623
302.804
303.385
303.563
303.702
303.42
302.553
302.148
333.01
333.818
334.221
334.8
334.611
334.314
333
335.865
336.279
337.302
337.456
336.672
335.742
336.224
336.085
335.765
334.7
335.599
333.089
334.736
330.471
331.389
329.556
328.966
330.037
329.882
331.273
331.158
331.286
331.526
332.177
332.828
330.538
331.065
331.72
330.445
330.111
330.934
330.382
330.222
323.529
325.298
327.046
324.911
325.518
325.312
326.367
326.989
326.535
326.054
327.689
326.869
327.299
325.429
326.056
326.129
327.458
324.908
326.879
323.779
321.491
320.865
320.809
320.101
320.152
322.005
322.772
320.625
321.268
322.561
321.175
321.98
322.823
321.86
320.584
320.523
321.385
320.038
323.028
319.642
316.731
316.324
314.783
317.191
316.481
317.937
317.111
317.981
316.17
317.198
317.981
318.069
316.153
314.372
317.888
317.028
315.894
316.254
317.061
316.041
312.451
310.147
309.678
313.576
311.968
313.1
313.467
310.621
312.253
312.468
311.472
312.1
311.393
312.314
311.589
312.267
311.571
312.82
311.209
311.714
307.418
305.6
306.942
305.82
308.335
307.805
307.856
307.109
306.069
306.957
307.939
306.945
307.869
306.46
308.06
307.292
307.742
305.791
305.152
307.706
302.126
302.044
301.644
301.817
303.419
302.455
303.052
302.291
301.597
302.261
303.549
304.479
302.73
301.674
301.905
301.12
303.147
302.184
303.745
303.315
334.922
336.133
335.295
334.973
334.972
336.527
334.119
339.001
336.853
338.385
337.794
336.375
336.634
336.658
335.443
337.11
335.916
334.209
335.212
336.815
331.81
330.573
330.292
330.105
332.148
331.006
331.726
331.31
332.171
331.684
331.561
330.505
331.392
331.844
331.703
332.116
330.725
330.032
330.553
330.043
327.919
325.798
327.17
325.345
327.108
327.352
327.757
328.11
327.99
326.954
329.077
327.163
326.894
327.854
327.637
326.143
327.871
326.294
325.727
326.005
321.568
320.9
321.413
321.76
321.73
321.762
320.968
321.623
322.644
323.345
322.602
324.065
322.657
321.924
321.239
320.266
320.64
322.42
321.456
322.381
317.989
316.179
316.795
318.371
317.5
316.084
315.756
317.319
316.721
317.837
317.029
318.477
319.849
319.26
317.307
316.231
317.315
317.977
317.069
317.791
313.4
312.182
311.81
311.746
310.028
310.283
313.366
312.976
312.043
312.982
312.591
314.648
310.849
311.18
313.391
311.26
310.13
312.054
310.549
312.881
306.524
307.462
308.54
306.503
308.152
306.751
308.462
307.597
307.298
307.741
307.248
308.801
307.312
306.536
307.11
306.962
306.373
305.806
309.221
305.511
301.668
302.247
301.1
301.039
302.187
301.377
304.174
302.591
302.818
302.591
303.272
302.854
301.738
301.758
303.424
301.585
301.957
303.074
302.093
303.12
337.115
335.681
337.457
336.14
336.382
338.721
337.167
338.142
337.319
338.034
338.603
338.842
338.352
336.564
336.32
337.86
336.213
335.892
335.428
337.019
331.829
332.075
331.395
331.951
331.716
331.001
332.139
331.58
332.172
332.654
332.638
333.33
331.522
332.429
333.48
330.393
330.907
330.539
330.993
332.411
326.494
327.177
326.619
327.88
326.004
326.828
326.998
327.236
327.716
328.859
328.247
328.063
327.44
329.476
327.445
326.462
326.675
326.953
326.812
325.95
322.927
323.124
322.476
323.194
322.226
322.246
322.238
322.067
322.584
323.231
323.254
322.771
322.388
322.717
322.265
320.982
322.104
321.799
320.816
323.829
317.385
316.207
316.98
317.411
316.613
316.94
317.726
317.297
317.909
318.463
317.815
317.704
317.014
317.326
317.276
318.354
315.89
317.956
316.011
318.386
314.325
312.806
311.597
312.716
312.479
314.233
313.663
313.09
311.629
312.124
313.035
313.894
313.798
311.232
310.358
310.827
313.647
313.674
312.26
311.511
308.648
308.685
308.719
306.958
307.711
308.044
308.228
306.324
307.199
307.803
307.761
306.825
307.467
306.577
306.619
307.569
306.503
308.434
307.925
307.293
303.052
302.175
303.075
302.744
302.384
302.937
303.21
302.763
301.912
301.775
301.771
302.175
303.376
301.946
303.087
301.374
301.544
302.376
302.32
303.544
338.397
338.525
338.93
338.13
337.266
337.29
338.848
337.82
337.2
338.01
337.705
337.129
337.835
338.448
337.249
335.893
336.898
336.897
337.426
337.635
333.803
332.449
332.382
333.352
333.232
333.32
331.535
333.325
333.602
333.457
333.674
333.533
333.636
333.182
333.322
333.667
333.04
332.963
332.672
332.788
328.751
328.271
328.555
327.119
327.611
328.936
328.844
328.341
328.172
328.888
329.05
328.349
328.878
327.695
326.803
327.887
326.597
327.603
326.557
326.582
324.414
322.303
321.421
322.245
322.241
322.6
322.984
323.35
324.687
323.32
322.532
321.241
322.338
322.85
322.831
322.58
322.99
323.959
321.885
324.347
317.804
319.933
319.079
318.549
319.289
316.444
317.663
319.058
317.213
317.956
319.048
318.862
317.973
318.151
317.479
318.289
317.738
316.234
317.854
317.048
314.58
312.501
313.77
312.476
312.879
313.082
311.408
314.401
313.496
312.373
312.229
312.159
312.944
313.256
312.142
312.402
311.675
312.607
313.131
311.034
307.202
307.489
307.276
307.531
306.753
307.126
307.418
307.822
307.748
309.008
307.689
308.81
306.759
307.619
307.878
307.942
307.727
307.161
304.588
306.831
302.759
303.726
302.252
302.767
302.798
303.176
302.489
303.44
302.604
303.794
303.411
303.647
304.242
302.774
301.786
301.947
301.939
300.908
302.177
302.596
340.519
339.345
338.428
339.007
338.753
339.362
338.092
339.397
338.535
339.439
339.995
339.187
338.563
340.079
337.145
336.746
338.101
336.177
339.21
337.677
334.806
333.268
333.864
333.78
332.429
332.755
333.183
333.775
334.013
334.422
333.808
333.994
334.826
334.342
333.245
334.044
333.881
333.248
334.188
333.178
329.103
330.019
327.923
328.662
329.49
328.096
328.221
327.665
329.493
328.959
328.364
329.63
328.357
328.172
328.482
329.311
328.045
327.646
328.002
328.143
323.473
323.368
322.61
324.267
324.391
321.694
323.054
323.067
322.644
323.014
323.192
323.293
323.842
323.933
322.506
323.478
323.352
322.729
324.013
324.761
318.058
317.367
317.089
317.631
318.055
317.584
318.946
318.504
317.949
319.111
318.513
317.66
317.924
318.039
317.637
317.127
317.985
318.497
318.862
317.872
313.916
312.663
312
312.739
312.146
313.021
311.658
313.202
313.209
312.216
313.124
313.955
312.92
313.381
312.829
311.976
312.853
313.042
313.702
312.033
308.551
307.1
307.924
307.687
307.175
307.848
308.042
308.863
309.025
307.353
308.368
308.652
309.21
307.168
307.878
306.708
308.548
309.469
306.525
309.515
301.881
302.233
302.098
303.165
303.773
302.593
301.6
302.384
303.418
302.66
303.897
300.635
301.735
303.494
302.845
301.95
301.723
301.488
303.031
303.34
341.408
340.256
339.481
339.058
338.804
339.265
339.741
338.753
339.285
339.265
339.361
340.708
339.136
337.867
338.732
338.062
338.555
339.029
338.891
339.206
334.27
334.872
334.345
335.661
333.438
335.167
334.741
335.894
333.368
335.912
335.222
333.537
335.648
333.213
335.912
332.911
335.366
333.355
335.222
334.519
329.217
329.821
329.686
329.039
328.064
328.715
330.432
328.965
329.192
329.745
329.26
330.057
330.029
327.186
327.743
329.289
327.306
328.726
330.361
327.642
325.654
324.396
324.318
322.942
323.219
323.428
324.864
324.61
324.922
323.408
323.134
324.492
324.757
324.069
324.475
323.06
324.271
321.848
324.709
323.735
317.639
317.609
319.258
318.241
318.394
317.745
318.748
319.257
318.117
317.467
319.507
318.896
318.157
317.004
319.843
319.082
316.736
319.185
319.656
319.71
315.175
312.398
313.609
313.206
314.476
314.953
313.9
313.489
314.132
311.902
312.381
313.372
312.55
312.933
313.947
313.391
311.696
314.353
312.552
313.197
306.684
308.363
307.911
307.369
308.138
307.175
308.184
309.169
309.249
307.659
308.707
307.97
306.967
306.405
307.63
307.22
306.423
306.569
309.425
307.926
303.491
303.229
303.131
303.152
302.703
301.906
302.489
302.566
301.439
304.047
303.919
302.38
303.379
303.553
302.816
301.224
303.908
301.392
300.435
303.886
341.122
341.621
339.195
340.286
341.168
340.639
341.259
338.431
340.074
340.958
339.509
340.378
339.181
340.066
340.175
339.287
338.679
338.788
339.366
339.598
336.107
335.779
334.971
336.446
336.106
334.027
334.258
335.655
333.965
334.355
336.594
335.996
334.062
334.463
333.011
333.211
334.103
334.298
336.288
332.746
330.075
329.658
328.381
330.083
329.663
329.242
327.934
329.339
329.072
329.3
330.515
328.447
330.949
329.292
329.901
328.637
329.392
330.338
328.894
330.437
324.114
323.396
324.935
324.457
324.07
324.446
324.31
324.354
323.819
325.43
324.797
323.812
325.187
324.894
323.911
323.601
323.053
326.166
324.121
323.19
318.851
319.53
317.011
319.279
318.326
317.176
319.34
318.679
318.822
317.933
319.503
318.316
319.682
318.95
318.015
318.14
318.814
319.634
319.856
320.299
314.533
313.145
313.594
314.079
312.509
314.271
313.819
314.265
314.274
314.269
313.558
313.779
314.402
314.38
311.839
314.095
311.636
313.035
313.491
315.215
308.323
308.723
306.328
308.148
307.63
308.554
307.671
308.586
307.443
309.487
308.956
308.515
308.262
307.592
309.957
307.552
308.915
309.201
308.334
307.181
305.017
302.448
301.908
302.173
303.121
302.657
302.496
302.822
303.644
303.393
303.462
301.939
304.227
303.785
301.023
303.462
303.204
302.431
301.474
302.42
)
;

boundaryField
{
    hotSide
    {
        type            fixedGradient;
        gradient        nonuniform List<scalar> 
400
(
321.511
322.87
325.591
329.677
335.133
341.965
350.181
359.788
370.794
383.208
397.037
412.289
428.971
447.088
466.647
487.651
510.105
534.011
559.372
586.191
323.738
325.08
327.767
331.802
337.194
343.949
352.078
361.591
372.498
384.81
398.537
413.687
430.268
448.289
467.755
488.672
511.043
534.872
560.161
586.913
326.149
327.47
330.116
334.091
339.406
346.071
354.099
363.503
374.296
386.491
400.101
415.136
431.606
449.52
468.885
489.706
511.988
535.735
560.948
587.63
328.704
330
332.597
336.503
341.73
348.292
356.205
365.485
376.15
388.215
401.695
416.604
432.954
450.753
470.009
490.73
512.919
536.579
561.714
588.325
331.33
332.599
335.142
338.97
344.099
350.546
358.332
367.477
378.003
389.928
403.271
418.047
434.27
451.949
471.095
491.712
513.807
537.382
562.439
588.978
333.918
335.158
337.643
341.389
346.414
352.74
360.392
369.397
379.779
391.562
404.765
419.407
435.503
453.065
472.101
492.618
514.622
538.114
563.096
589.569
336.321
337.531
339.959
343.622
348.544
354.751
362.274
371.142
381.385
393.031
406.101
420.618
436.595
454.047
472.983
493.409
515.33
538.747
563.663
590.076
338.36
339.543
341.92
345.509
350.339
356.44
363.847
372.595
382.718
394.244
407.2
421.608
437.485
454.844
473.695
494.045
515.897
539.253
564.114
590.478
339.852
341.015
343.352
346.885
351.645
357.665
364.985
373.643
383.675
395.113
407.984
422.312
438.116
455.407
474.197
494.491
516.294
539.606
564.428
590.758
340.643
341.795
344.11
347.613
352.334
358.311
365.584
374.193
384.176
395.567
408.393
422.679
438.443
455.699
474.456
494.722
516.498
539.788
564.589
590.901
340.643
341.795
344.11
347.613
352.334
358.311
365.584
374.193
384.176
395.567
408.393
422.679
438.443
455.699
474.456
494.722
516.498
539.788
564.589
590.901
339.852
341.015
343.352
346.885
351.645
357.665
364.985
373.643
383.675
395.113
407.984
422.312
438.116
455.407
474.197
494.491
516.294
539.606
564.428
590.758
338.36
339.543
341.92
345.509
350.339
356.44
363.847
372.595
382.718
394.244
407.2
421.608
437.485
454.844
473.695
494.045
515.897
539.253
564.114
590.478
336.321
337.531
339.959
343.622
348.544
354.751
362.274
371.142
381.385
393.031
406.101
420.618
436.595
454.047
472.983
493.409
515.33
538.747
563.663
590.076
333.918
335.158
337.643
341.389
346.414
352.74
360.392
369.397
379.779
391.562
404.765
419.407
435.503
453.065
472.101
492.618
514.622
538.114
563.096
589.569
331.33
332.599
335.142
338.97
344.099
350.546
358.332
367.477
378.003
389.928
403.271
418.047
434.27
451.949
471.095
491.712
513.807
537.382
562.439
588.978
328.704
330
332.597
336.503
341.73
348.292
356.205
365.485
376.15
388.215
401.695
416.604
432.954
450.753
470.009
490.73
512.919
536.579
561.714
588.325
326.149
327.47
330.116
334.091
339.406
346.071
354.099
363.503
374.296
386.491
400.101
415.136
431.606
449.52
468.885
489.706
511.988
535.735
560.948
587.63
323.738
325.08
327.767
331.802
337.194
343.949
352.078
361.591
372.498
384.81
398.537
413.687
430.268
448.289
467.755
488.672
511.043
534.872
560.161
586.913
321.511
322.87
325.591
329.677
335.133
341.965
350.181
359.788
370.794
383.208
397.037
412.289
428.971
447.088
466.647
487.651
510.105
534.011
559.372
586.191
)
;
    }
    coldSide
    {
        type            mixed;
        refValue        uniform 300;
        refGradient     uniform 0;
        valueFraction   uniform 0.991591;
        source          uniform 0;
        value           nonuniform List<scalar> 
400
(
300.015
300.03
300.013
300.012
300.022
300.022
300.02
300.02
300.007
300.01
300.025
300.022
300.022
300.018
300.014
300.026
300.023
300.016
300.029
300.042
300.012
300.008
300.021
300.008
300.025
300.01
300.003
300.023
300.019
300.015
300.026
300.033
300.011
300.017
300.019
300.018
300.031
300.019