/*--------------------------------*- C++ -*----------------------------------*\
| =========                 |                                                 |
| \\      /  F ield         | OpenFOAM: The Open Source CFD Toolbox           |
|  \\    /   O peration     | Version:  2212                                  |
|   \\  /    A nd           | Website:  www.openfoam.com                      |
|    \\/     M anipulation  |                                                 |
\*---------------------------------------------------------------------------*/
FoamFile
{
    version     2.0;
    format      ascii;
    arch        "LSB;label=32;scalar=64";
    class       volScalarField;
    location    "0";
    object      T;
}
// * * * * * * * * * * * * * * * * * * * * * * * * * * * * * * * * * * * * * //

dimensions      [0 0 0 1 0 0 0];

internalField   nonuniform List<scalar> 
3200
(
342.817
343.736
344.473
344.887
345.845
346.604
346.95
347.219
347.412
347.538
347.526
347.272
346.799
346.137
345.86
345.036
344.081
342.877
341.895
341.443
337.208
337.993
338.652
338.926
339.786
340.516
340.747
340.991
341.158
341.336
341.314
341.047
340.687
340.095
339.806
339.133
338.296
337.257
336.416
336.052
331.554
332.218
332.794
333.008
333.701
334.373
334.497
334.762
334.888
335.057
335.003
334.807
334.479
334.019
333.683
333.17
332.417
331.576
330.894
330.628
325.875
326.426
326.917
327.061
327.615
328.177
328.254
328.471
328.595
328.746
328.67
328.523
328.255
327.883
327.577
327.216
326.521
325.866
325.324
325.109
320.126
320.614
320.996
321.101
321.525
321.949
322.027
322.194
322.228
322.405
322.344
322.211
322.016
321.736
321.414
321.193
320.608
320.125
319.765
319.565
314.348
314.765
315.035
315.118
315.423
315.755
315.748
315.923
315.895
316
315.972
315.895
315.749
315.585
315.3
315.166
314.714
314.407
314.142
313.979
308.631
308.873
309.047
309.126
309.273
309.493
309.468
309.614
309.556
309.559
309.591
309.57
309.455
309.375
309.201
309.094
308.834
308.678
308.488
308.344
302.888
302.967
303.038
303.05
303.109
303.186
303.174
303.234
303.216
303.214
303.203
303.234
303.148
303.142
303.083
303.05
302.966
302.922
302.863
302.786
343.571
344.384
345.334
345.798
346.639
347.424
347.858
348.096
348.259
348.46
348.516
348.049
347.716
347.294
346.55
345.819
345.071
343.825
342.902
341.953
337.828
338.489
339.276
339.69
340.43
341.144
341.506
341.732
341.834
342.008
342.134
341.738
341.404
341.051
340.378
339.739
339.089
338.034
337.283
336.46
332.004
332.619
333.241
333.585
334.252
334.827
335.158
335.345
335.376
335.555
335.704
335.343
335.076
334.785
334.158
333.635
333.05
332.2
331.606
330.912
326.231
326.746
327.191
327.516
328.038
328.513
328.767
328.914
328.949
329.078
329.214
328.91
328.715
328.489
327.991
327.513
327.037
326.354
325.864
325.288
320.45
320.88
321.171
321.425
321.796
322.169
322.365
322.489
322.53
322.616
322.747
322.486
322.364
322.202
321.802
321.391
321.057
320.489
320.136
319.722
314.638
314.916
315.12
315.302
315.554
315.837
315.983
316.072
316.085
316.173
316.257
316.095
316.012
315.849
315.612
315.279
315.024
314.638
314.365
314.114
308.779
308.974
309.074
309.211
309.351
309.535
309.607
309.648
309.677
309.711
309.739
309.667
309.655
309.505
309.377
309.184
309.021
308.803
308.606
308.461
302.952
303.037
303.041
303.093
303.147
303.231
303.226
303.223
303.261
303.244
303.265
303.235
303.24
303.168
303.137
303.071
302.997
302.935
302.884
302.831
344.749
345.231
346.217
347.152
347.816
348.537
348.818
349.098
349.659
349.687
349.583
349.24
348.757
348.364
347.633
347.075
345.979
344.875
344.065
343.06
338.797
339.216
340.017
340.832
341.496
342.071
342.352
342.549
343.076
343.126
342.972
342.718
342.27
341.943
341.314
340.898
339.879
338.926
338.278
337.438
332.837
333.228
333.856
334.533
335.136
335.635
335.885
335.992
336.429
336.53
336.356
336.122
335.753
335.516
334.972
334.659
333.741
332.926
332.445
331.691
326.929
327.192
327.676
328.223
328.766
329.166
329.393
329.416
329.808
329.963
329.73
329.518
329.251
329.079
328.596
328.358
327.666
326.952
326.607
325.947
320.983
321.106
321.525
321.908
322.375
322.699
322.894
322.891
323.16
323.345
323.093
322.96
322.76
322.634
322.187
322.056
321.553
320.958
320.756
320.197
315.004
315.06
315.399
315.642
316.017
316.213
316.368
316.39
316.533
316.671
316.476
316.43
316.281
316.203
315.838
315.785
315.417
314.993
314.855
314.465
309.012
309.039
309.279
309.384
309.62
309.724
309.828
309.874
309.977
310.008
309.89
309.874
309.794
309.745
309.539
309.496
309.251
309.006
308.953
308.674
303.014
303.022
303.109
303.153
303.2
303.264
303.308
303.32
303.337
303.339
303.31
303.284
303.282
303.268
303.19
303.171
303.101
303.007
302.999
302.905
345.874
346.404
347.227
348.109
348.981
349.96
350.287
350.399
350.887
350.838
350.558
350.465
350.053
349.544
348.708
348.154
347.286
346.149
345.201
344.155
339.789
340.221
340.908
341.682
342.396
343.355
343.579
343.704
344.127
344.068
343.85
343.74
343.39
342.937
342.219
341.732
340.997
340.046
339.186
338.364
333.664
334.05
334.583
335.275
335.818
336.729
336.878
337.016
337.308
337.31
337.172
337.018
336.707
336.347
335.75
335.336
334.774
333.893
333.15
332.499
327.496
327.817
328.232
328.862
329.294
330.045
330.126
330.326
330.481
330.544
330.398
330.316
330.015
329.688
329.252
328.937
328.519
327.727
327.12
326.607
321.373
321.563
321.917
322.461
322.757
323.328
323.387
323.598
323.698
323.733
323.656
323.633
323.337
323.025
322.749
322.507
322.198
321.522
321.134
320.702
315.237
315.404
315.67
316.056
316.219
316.627
316.68
316.868
316.915
316.957
316.93
316.888
316.665
316.399
316.236
316.087
315.9
315.364
315.11
314.789
309.152
309.269
309.41
309.664
309.753
309.976
310.037
310.133
310.147
310.18
310.175
310.137
309.988
309.828
309.742
309.674
309.53
309.217
309.098
308.891
303.082
303.108
303.175
303.255
303.277
303.347
303.353
303.385
303.393
303.421
303.403
303.407
303.356
303.302
303.254
303.251
303.194
303.106
303.06
302.971
346.983
347.508
348.37
349.397
350.106
351.228
351.418
351.685
351.826
352.111
351.903
351.491
351.381
350.876
350.036
349.305
348.457
347.152
346.179
345.069
340.733
341.161
341.867
342.764
343.407
344.42
344.593
344.792
344.917
345.188
344.994
344.633
344.522
344.136
343.401
342.753
342.025
340.916
340.075
339.14
334.491
334.813
335.434
336.152
336.718
337.594
337.741
337.894
338.034
338.252
338.135
337.747
337.661
337.338
336.744
336.185
335.607
334.626
333.935
333.183
328.258
328.483
329.006
329.566
330.043
330.715
330.895
331.03
331.164
331.327
331.199
330.896
330.783
330.547
330.071
329.588
329.185
328.332
327.797
327.219
321.989
322.161
322.555
322.993
323.378
323.84
324.082
324.16
324.257
324.41
324.26
324.087
323.892
323.744
323.423
323.002
322.721
322.042
321.63
321.229
315.736
315.844
316.103
316.425
316.744
317.006
317.251
317.244
317.326
317.461
317.333
317.221
317.047
316.967
316.746
316.405
316.263
315.74
315.452
315.221
309.453
309.492
309.662
309.885
310.068
310.228
310.361
310.35
310.384
310.538
310.406
310.356
310.23
310.167
310.044
309.848
309.779
309.429
309.271
309.173
303.186
303.177
303.232
303.326
303.373
303.432
303.464
303.475
303.499
303.522
303.49
303.469
303.421
303.385
303.366
303.305
303.269
303.141
303.12
303.093
347.912
348.599
349.773
350.54
351.304
352.02
352.48
352.893
353.142
353.113
353.17
352.799
352.483
351.961
351.247
350.373
349.453
348.324
347.251
346.06
341.571
342.145
343.156
343.803
344.471
345.111
345.525
345.854
346.079
346.052
346.103
345.739
345.521
345.054
344.434
343.679
342.807
341.895
341.016
340.007
335.201
335.726
336.503
337.042
337.634
338.17
338.546
338.786
339.037
339.028
338.996
338.677
338.52
338.126
337.562
336.942
336.187
335.479
334.725
333.9
328.825
329.247
329.858
330.301
330.794
331.212
331.559
331.709
331.936
331.962
331.891
331.646
331.543
331.175
330.696
330.222
329.611
329.012
328.432
327.778
322.452
322.768
323.218
323.566
323.939
324.307
324.59
324.686
324.823
324.904
324.801
324.616
324.562
324.263
323.886
323.519
323.093
322.56
322.125
321.678
316.061
316.276
316.571
316.849
317.072
317.386
317.606
317.578
317.727
317.812
317.716
317.55
317.57
317.351
317.073
316.831
316.495
316.115
315.809
315.57
309.632
309.816
309.934
310.133
310.234
310.474
310.599
310.55
310.639
310.672
310.654
310.527
310.547
310.433
310.244
310.11
309.895
309.653
309.481
309.357
303.223
303.288
303.344
303.383
303.412
303.525
303.55
303.544
303.548
303.581
303.575
303.523
303.53
303.496
303.422
303.363
303.31
303.238
303.162
303.122
348.812
349.637
350.741
351.868
352.825
353.296
353.74
354.112
354.457
354.349
354.191
354.155
353.486
353.208
352.205
351.58
350.482
349.222
348.147
347.116
342.363
343.003
343.994
344.966
345.764
346.202
346.581
346.942
347.214
347.076
346.933
346.925
346.358
346.128
345.225
344.739
343.722
342.643
341.746
340.913
335.901
336.405
337.233
338.026
338.717
339.071
339.39
339.731
339.973
339.823
339.626
339.701
339.208
338.997
338.289
337.88
337.022
336.072
335.305
334.621
329.41
329.818
330.455
331.105
331.667
331.951
332.161
332.499
332.697
332.549
332.382
332.497
332.104
331.879
331.309
330.968
330.323
329.486
328.88
328.323
322.905
323.2
323.643
324.2
324.617
324.816
324.97
325.288
325.4
325.262
325.167
325.266
325.003
324.762
324.352
324.076
323.561
322.929
322.52
322.072
316.372
316.574
316.857
317.306
317.587
317.735
317.818
318.036
318.122
318.03
317.978
318.052
317.927
317.695
317.409
317.173
316.865
316.391
316.092
315.798
309.859
309.97
310.119
310.404
310.543
310.628
310.7
310.834
310.856
310.807
310.802
310.826
310.786
310.593
310.462
310.282
310.126
309.835
309.657
309.492
303.308
303.336
303.383
303.482
303.529
303.552
303.587
303.63
303.645
303.609
303.625
303.634
303.601
303.547
303.499
303.432
303.381
303.302
303.251
303.17
349.649
350.443
351.761
352.891
353.692
354.094
354.821
355.193
355.343
355.367
355.163
355.037
354.641
354.063
353.294
352.452
351.414
350.2
348.992
348.098
343.073
343.714
344.878
345.841
346.506
346.865
347.515
347.862
347.986
347.988
347.76
347.725
347.348
346.874
346.227
345.55
344.543
343.553
342.478
341.773
336.501
336.961
337.947
338.83
339.33
339.616
340.194
340.521
340.606
340.618
340.405
340.369
340.083
339.651
339.115
338.571
337.694
336.829
335.924
335.427
329.912
330.212
331.029
331.756
332.166
332.365
332.856
333.215
333.213
333.233
333.078
333.024
332.814
332.389
331.989
331.524
330.865
330.105
329.389
329.05
323.324
323.478
324.13
324.713
325.055
325.136
325.513
325.817
325.831
325.813
325.762
325.722
325.54
325.182
324.854
324.505
323.995
323.391
322.877
322.609
316.74
316.782
317.234
317.654
317.917
317.956
318.223
318.454
318.431
318.423
318.392
318.405
318.26
318.031
317.754
317.531
317.123
316.715
316.347
316.193
310.051
310.054
310.376
310.579
310.737
310.783
310.958
311.079
311.081
311.068
311.037
311.103
310.957
310.839
310.715
310.54
310.275
310.043
309.854
309.747
303.353
303.385
303.47
303.53
303.585
303.627
303.658
303.716
303.72
303.688
303.697
303.729
303.679
303.631
303.616
303.538
303.44
303.379
303.319
303.273
350.615
351.51
352.654
353.651
354.679
355.328
355.833
356.462
356.224
356.471
356.291
356.175
355.559
354.94
354.085
353.431
352.45
351.179
350.006
349.098
343.909
344.646
345.616
346.513
347.378
347.947
348.381
348.941
348.71
348.978
348.806
348.744
348.189
347.584
346.931
346.379
345.479
344.358
343.37
342.633
337.119
337.771
338.613
339.392
340.095
340.543
340.952
341.391
341.222
341.41
341.312
341.236
340.829
340.294
339.737
339.305
338.507
337.549
336.745
336.113
330.368
330.923
331.619
332.267
332.812
333.143
333.475
333.864
333.768
333.881
333.815
333.753
333.419
332.997
332.503
332.182
331.482
330.728
330.085
329.559
323.627
324.059
324.618
325.093
325.502
325.771
326.031
326.344
326.294
326.336
326.328
326.282
326.014
325.675
325.272
325.031
324.448
323.908
323.42
323.035
316.901
317.174
317.643
317.937
318.197
318.389
318.566
318.85
318.795
318.799
318.838
318.794
318.629
318.396
318.044
317.895
317.449
317.084
316.703
316.509
310.179
310.278
310.6
310.793
310.935
311.014
311.144
311.308
311.288
311.296
311.332
311.3
311.186
311.086
310.868
310.731
310.48
310.222
310.025
309.958
303.405
303.445
303.544
303.614
303.662
303.675
303.724
303.78
303.758
303.795
303.806
303.789
303.732
303.717
303.641
303.582
303.516
303.414
303.36
303.343
351.183
352.141
353.551
354.446
355.477
356.182
356.697
357.278
357.349
357.357
357.269
356.965
356.554
356.089
355.091
354.47
353.261
351.978
350.899
349.911
344.38
345.243
346.425
347.213
348.123
348.677
349.164
349.657
349.657
349.739
349.655
349.363
349.042
348.684
347.815
347.241
346.139
345.067
344.143
343.319
337.572
338.319
339.263
339.973
340.732
341.192
341.56
342.05
342.017
342.125
342.026
341.74
341.546
341.207
340.489
339.996
339.056
338.179
337.366
336.64
330.733
331.394
332.131
332.7
333.356
333.692
333.986
334.397
334.399
334.479
334.388
334.147
334.009
333.679
333.152
332.706
331.959
331.306
330.652
329.986
323.903
324.402
324.982
325.433
325.961
326.199
326.429
326.746
326.746
326.859
326.711
326.578
326.483
326.208
325.781
325.409
324.842
324.385
323.907
323.306
317.139
317.416
317.865
318.182
318.575
318.698
318.883
319.133
319.134
319.21
319.094
319.006
318.919
318.7
318.44
318.129
317.731
317.461
317.147
316.648
310.351
310.476
310.717
310.907
311.156
311.208
311.339
311.506
311.477
311.527
311.468
311.42
311.339
311.234
311.068
310.876
310.635
310.475
310.295
309.962
303.482
303.494
303.585
303.635
303.762
303.769
303.826
303.879
303.856
303.856
303.871
303.823
303.798
303.764
303.711
303.632
303.568
303.491
303.476
303.319
352.031
353.108
354.278
355.439
356.245
357.053
357.496
357.937
358.093
358.106
358.26
357.85
357.308
356.832
355.867
355.245
354.011
352.986
351.645
350.542
345.161
346.046
347.013
348.073
348.776
349.445
349.823
350.236
350.333
350.361
350.515
350.127
349.711
349.275
348.429
347.907
346.861
345.974
344.809
343.878
338.271
338.983
339.779
340.664
341.29
341.813
342.144
342.501
342.563
342.574
342.724
342.416
342.072
341.673
340.976
340.555
339.685
338.931
337.948
337.15
331.353
331.887
332.584
333.254
333.799
334.188
334.464
334.767
334.8
334.846
334.941
334.671
334.424
334.098
333.528
333.199
332.49
331.864
331.036
330.421
324.424
324.781
325.39
325.852
326.328
326.554
326.806
327.048
327.025
327.104
327.155
326.943
326.753
326.572
326.063
325.831
325.283
324.78
324.17
323.688
317.446
317.728
318.196
318.46
318.859
318.972
319.119
319.301
319.296
319.358
319.367
319.24
319.092
319.008
318.591
318.446
318.093
317.71
317.301
316.932
310.445
310.682
310.948
311.076
311.38
311.399
311.462
311.595
311.591
311.61
311.607
311.574
311.445
311.436
311.155
311.076
310.891
310.635
310.401
310.159
303.501
303.572
303.654
303.691
303.847
303.811
303.844
303.882
303.882
303.891
303.884
303.887
303.842
303.858
303.719
303.719
303.647
303.558
303.494
303.398
352.824
353.73
354.911
356.243
357.103
357.767
358.089
358.457
358.829
358.953
359.108
358.694
358.306
357.727
356.694
355.923
354.748
353.564
352.378
351.116
345.847
346.619
347.575
348.76
349.443
350.055
350.354
350.689
351.022
351.072
351.228
350.918
350.567
350.018
349.129
348.464
347.485
346.506
345.456
344.351
338.857
339.489
340.281
341.297
341.822
342.334
342.584
342.902
343.186
343.21
343.286
343.087
342.808
342.345
341.556
340.994
340.188
339.388
338.529
337.539
331.81
332.326
332.948
333.794
334.212
334.576
334.83
335.095
335.324
335.335
335.389
335.251
334.99
334.636
333.97
333.558
332.922
332.28
331.587
330.728
324.741
325.201
325.653
326.309
326.642
326.875
327.097
327.304
327.438
327.499
327.546
327.416
327.203
326.971
326.398
326.052
325.611
325.103
324.614
323.909
317.661
318.052
318.375
318.771
319.033
319.23
319.329
319.486
319.581
319.663
319.68
319.583
319.452
319.298
318.868
318.612
318.302
317.922
317.641
317.08
310.609
310.827
311
311.258
311.439
311.595
311.602
311.697
311.777
311.812
311.839
311.773
311.701
311.587
311.333
311.192
310.987
310.768
310.593
310.261
303.564
303.66
303.69
303.77
303.85
303.879
303.908
303.938
303.966
303.968
303.972
303.926
303.906
303.882
303.826
303.745
303.675
303.601
303.562
303.446
353.389
354.297
355.487
356.569
357.501
358.231
358.84
359.206
359.336
359.678
359.474
359.214
358.851
358.435
357.509
356.406
355.208
354.271
352.906
351.638
346.275
347.06
348.102
349.041
349.797
350.455
350.98
351.3
351.429
351.724
351.566
351.356
351.049
350.657
349.93
348.884
347.846
347.057
345.907
344.811
339.204
339.828
340.725
341.51
342.089
342.67
343.116
343.386
343.539
343.791
343.656
343.486
343.175
342.842
342.287
341.351
340.482
339.762
338.895
337.951
332.1
332.588
333.352
333.985
334.406
334.908
335.266
335.472
335.649
335.874
335.742
335.523
335.32
335.005
334.6
333.798
333.143
332.51
331.841
331.095
324.962
325.364
325.976
326.44
326.763
327.127
327.448
327.577
327.744
327.912
327.82
327.611
327.497
327.213
326.919
326.268
325.784
325.262
324.772
324.231
317.864
318.145
318.577
318.916
319.112
319.379
319.572
319.684
319.821
319.931
319.892
319.731
319.672
319.462
319.21
318.785
318.43
318.05
317.739
317.297
310.709
310.934
311.168
311.346
311.494
311.646
311.755
311.823
311.911
311.938
311.968
311.82
311.867
311.683
311.535
311.299
311.086
310.834
310.679
310.367
303.594
303.664
303.739
303.781
303.834
303.895
303.919
303.958
303.995
303.995
304.017
303.963
303.973
303.892
303.854
303.798
303.716
303.634
303.58
303.488
353.561
354.676
355.864
356.996
357.947
358.793
359.286
359.749
359.722
360.26
360.252
359.968
359.365
358.912
358.032
356.935
355.826
354.679
353.357
352.106
346.423
347.353
348.416
349.406
350.273
351.004
351.393
351.741
351.728
352.253
352.233
351.969
351.48
351.075
350.319
349.344
348.425
347.378
346.255
345.217
339.325
340.042
340.993
341.837
342.551
343.168
343.502
343.748
343.747
344.224
344.185
343.982
343.555
343.172
342.616
341.77
340.995
340.077
339.157
338.301
332.2
332.734
333.591
334.291
334.834
335.326
335.569
335.753
335.825
336.14
336.148
335.986
335.631
335.273
334.885
334.154
333.507
332.756
332.068
331.411
325.061
325.469
326.162
326.708
327.126
327.463
327.661
327.807
327.87
328.055
328.111
328.034
327.725
327.386
327.064
326.519
326.076
325.446
324.994
324.527
317.902
318.201
318.712
319.089
319.412
319.588
319.766
319.883
319.897
320.04
320.053
320.026
319.801
319.577
319.317
318.895
318.635
318.173
317.91
317.549
310.707
310.958
311.238
311.5
311.682
311.756
311.853
311.921
311.933
312.037
312.008
312.045
311.908
311.767
311.597
311.331
311.237
310.916
310.762
310.542
303.591
303.663
303.772
303.844
303.913
303.954
303.96
303.997
303.994
304.033
304.027
304.05
303.987
303.94
303.893
303.796
303.792
303.676
303.602
303.534
353.99
355.034
356.14
357.345
358.312
359.272
359.914
360.136
360.459
360.71
360.66
360.14
359.904
359.304
358.231
357.25
356.112
355.108
353.906
352.524
346.862
347.676
348.636
349.679
350.522
351.372
351.885
352.114
352.424
352.615
352.592
352.171
351.931
351.444
350.509
349.627
348.609
347.771
346.759
345.601
339.708
340.325
341.143
342.024
342.755
343.494
343.891
344.073
344.356
344.494
344.485
344.194
343.938
343.557
342.713
341.951
341.125
340.417
339.533
338.633
332.449
332.961
333.715
334.404
335.001
335.617
335.88
336.057
336.27
336.406
336.406
336.215
335.921
335.639
334.983
334.294
333.629
333.071
332.32
331.635
325.166
325.644
326.254
326.765
327.205
327.716
327.86
328.033
328.243
328.316
328.293
328.188
327.925
327.718
327.234
326.679
326.136
325.71
325.131
324.598
317.947
318.3
318.781
319.099
319.403
319.795
319.928
320.019
320.194
320.212
320.198
320.173
319.945
319.773
319.488
319.098
318.623
318.307
317.93
317.594
310.78
310.978
311.264
311.47
311.644
311.896
311.928
312.012
312.144
312.191
312.116
312.12
311.983
311.859
311.682
311.471
311.173
310.996
310.78
310.576
303.601
303.67
303.788
303.844
303.906
303.992
303.984
304.004
304.091
304.076
304.055
304.052
304.023
303.948
303.913
303.858
303.734
303.68
303.617
303.552
354.25
355.472
356.557
357.618
358.538
359.657
360.222
360.414
360.528
360.923
360.932
360.677
360.334
359.497
358.743
357.759
356.476
355.151
354.039
352.869
347.067
348.075
348.969
349.918
350.751
351.71
352.214
352.308
352.457
352.815
352.88
352.619
352.29
351.593
350.909
350.062
348.969
347.835
346.873
345.917
339.872
340.701
341.394
342.224
342.939
343.725
344.236
344.256
344.361
344.687
344.774
344.495
344.205
343.641
343.04
342.324
341.441
340.491
339.682
338.888
332.696
333.277
333.842
334.527
335.114
335.782
336.221
336.245
336.277
336.575
336.639
336.397
336.145
335.72
335.188
334.614
333.911
333.144
332.508
331.83
325.434
325.832
326.311
326.844
327.302
327.798
328.232
328.18
328.167
328.43
328.508
328.313
328.081
327.768
327.415
326.933
326.339
325.775
325.288
324.774
318.186
318.422
318.783
319.098
319.46
319.877
320.239
320.15
320.149
320.286
320.38
320.217
320.059
319.859
319.648
319.26
318.807
318.384
318.068
317.729
310.937
311.072
311.299
311.454
311.691
311.978
312.156
312.125
312.11
312.175
312.232
312.151
312.055
311.981
311.839
311.557
311.287
311.015
310.861
310.673
303.66
303.701
303.795
303.838
303.91
304.037
304.073
304.052
304.068
304.08
304.091
304.072
304.033
304.038
303.978
303.853
303.779
303.699
303.653
303.578
354.532
355.733
356.879
357.779
358.846
359.741
360.527
360.756
360.891
361.166
361.182
360.958
360.337
359.911
358.829
358.022
356.822
355.647
354.365
353.121
347.276
348.345
349.268
350.06
351.026
351.777
352.483
352.668
352.793
353.04
353.029
352.869
352.332
352.008
351.011
350.29
349.27
348.288
347.148
346.161
340.077
340.936
341.678
342.352
343.195
343.807
344.418
344.614
344.696
344.865
344.862
344.72
344.322
344.051
343.197
342.532
341.695
340.875
339.938
339.158
332.868
333.507
334.103
334.633
335.322
335.864
336.344
336.572
336.607
336.717
336.691
336.588
336.28
336.05
335.382
334.775
334.104
333.45
332.664
332.109
325.638
326.075
326.565
326.928
327.445
327.904
328.294
328.473
328.555
328.553
328.533
328.428
328.219
328.057
327.52
327.023
326.511
326.022
325.442
324.966
318.361
318.609
318.988
319.207
319.565
319.952
320.194
320.283
320.433
320.414
320.363
320.274
320.144
320.037
319.636
319.286
318.945
318.564
318.194
317.854
311.014
311.146
311.425
311.487
311.721
311.967
312.106
312.131
312.302
312.257
312.209
312.153
312.08
312.025
311.781
311.575
311.371
311.165
310.934
310.705
303.682
303.737
303.825
303.852
303.914
304.025
304.045
304.059
304.132
304.11
304.105
304.064
304.038
304.036
303.941
303.881
303.818
303.722
303.687
303.578
354.535
356.114
357.028
357.924
359.008
359.75
360.548
361.114
361.223
361.481
361.229
361.023
360.397
359.919
359.005
358.115
357.101
355.972
354.282
353.399
347.295
348.609
349.467
350.168
351.164
351.778
352.462
352.965
353.115
353.279
353.087
352.894
352.382
351.992
351.128
350.381
349.46
348.544
347.054
346.323
340.023
341.127
341.86
342.396
343.276
343.823
344.46
344.807
344.994
345.094
344.919
344.758
344.391
343.993
343.213
342.634
341.811
341.065
339.835
339.231
332.741
333.656
334.257
334.645
335.394
335.852
336.426
336.625
336.817
336.88
336.707
336.625
336.379
336.028
335.321
334.856
334.2
333.564
332.589
332.131
325.495
326.151
326.64
326.888
327.529
327.896
328.355
328.47
328.668
328.698
328.553
328.511
328.304
328.061
327.428
327.046
326.562
326.081
325.331
325.004
318.23
318.686
319.063
319.233
319.683
319.933
320.268
320.314
320.499
320.554
320.4
320.375
320.231
320.071
319.574
319.293
318.965
318.634
318.08
317.893
310.95
311.248
311.495
311.53
311.832
311.977
312.141
312.201
312.296
312.376
312.241
312.222
312.134
312.07
311.743
311.607
311.373
311.176
310.878
310.749
303.667
303.785
303.864
303.861
303.981
304.011
304.072
304.084
304.134
304.14
304.106
304.096
304.065
304.044
303.921
303.883
303.831
303.75
303.656
303.591
354.644
355.874
357.144
358.113
359.228
359.765
360.444
361.077
361.394
361.679
361.277
361.044
360.461
359.844
359.167
358.186
357.164
355.988
354.592
353.381
347.386
348.43
349.562
350.36
351.347
351.779
352.398
352.923
353.198
353.48
353.129
352.926
352.38
351.934
351.319
350.493
349.556
348.554
347.324
346.313
340.119
341.013
341.991
342.645
343.454
343.807
344.328
344.765
344.988
345.266
344.989
344.798
344.26
343.97
343.376
342.728
341.93
341.09
340.019
339.192
332.861
333.562
334.403
334.868
335.566
335.837
336.297
336.623
336.826
337.003
336.825
336.678
336.172
336.024
335.428
334.925
334.297
333.609
332.777
332.035
325.592
326.106
326.775
327.084
327.673
327.855
328.282
328.457
328.654
328.735
328.641
328.552
328.106
328.07
327.507
327.17
326.7
326.172
325.492
324.896
318.309
318.627
319.12
319.33
319.722
319.9
320.227
320.355
320.453
320.509
320.445
320.404
320.055
320.097
319.639
319.394
319.074
318.747
318.204
317.775
311.027
311.16
311.459
311.628
311.833
311.922
312.151
312.254
312.291
312.275
312.275
312.26
312.044
312.107
311.783
311.661
311.435
311.269
310.936
310.687
303.699
303.738
303.84
303.913
303.962
304.009
304.073
304.129
304.112
304.099
304.105
304.091
304.038
304.077
303.949
303.917
303.828
303.759
303.686
303.591
354.938
355.846
357.017
358.143
359.336
359.741
360.45
361.16
361.455
361.744
361.258
360.964
360.245
359.879
359.114
358.403
357.243
355.973
354.491
353.181
347.667
348.421
349.438
350.385
351.44
351.75
352.415
353.017
353.293
353.551
353.092
352.844
352.177
351.922
351.244
350.624
349.626
348.599
347.23
346.162
340.364
341.007
341.865
342.64
343.53
343.786
344.357
344.854
345.088
345.316
344.951
344.717
344.085
343.918
343.333
342.855
342.021
341.153
339.926
339.118
333.033
333.6
334.27
334.846
335.65
335.845
336.261
336.675
336.902
337.071
336.769
336.611
336.008
335.931
335.455
335.054
334.388
333.689
332.622
331.956
325.675
326.189
326.64
327.103
327.687
327.867
328.174
328.533
328.714
328.856
328.615
328.454
327.994
327.969
327.545
327.273
326.798
326.203
325.353
324.819
318.353
318.736
319.043
319.337
319.773
319.862
320.137
320.376
320.499
320.653
320.452
320.331
320.01
319.989
319.658
319.475
319.181
318.683
318.166
317.742
311.028
311.287
311.434
311.589
311.891
311.901
312.098
312.249
312.265
312.379
312.281
312.227
312.005
312.014
311.791
311.711
311.542
311.243
310.939
310.641
303.705
303.786
303.82
303.888
303.983
303.966
304.074
304.136
304.099
304.155
304.116
304.098
304.021
304.035
303.958
303.957
303.884
303.765
303.673
303.547
)
;

boundaryField
{
    hotSide
    {
        type            fixedGradient;
        gradient        nonuniform List<scalar> 
400
(
443.148
456.336
469.12
481.443
493.249
504.483
515.092
525.024
534.231
542.665
550.285
557.05
562.925
567.88
571.886
574.922
576.971
578.02
578.064
577.1
454.209
467.77
480.92
493.6
505.751
517.317
528.244
538.478
547.969
556.668
564.533
571.521
577.597
582.728
586.887
590.049
592.198
593.321
593.411
592.466
464.019
477.918
491.399
504.401
516.865
528.733
539.948
550.456
560.206
569.148
577.236
584.43
590.691
595.985
600.285
603.566
605.811
607.005
607.141
606.217
472.522
486.72
500.494
513.782
526.524
538.66
550.132
560.886
570.867
580.026
588.317
595.695
602.124
607.567
611.996
615.387
617.72
618.982
619.165
618.266
479.673
494.13
508.157
521.693
534.675
547.044
558.741
569.708
579.892
589.242
597.709
605.251
611.828
617.404
621.95
625.439
627.854
629.18
629.407
628.535
485.439
500.111
514.35
528.093
541.278
553.843
565.728
576.876
587.232
596.744
605.363
613.045
619.75
625.441
630.089
633.666
636.154
637.538
637.809
636.965
489.797
504.639
519.047
532.956
546.303
559.025
571.063
582.358
592.854
602.498
611.242
619.039
625.85
631.638
636.372
640.025
642.577
644.013
644.325
643.509
492.732
507.7
522.233
536.265
549.732
562.573
574.725
586.131
596.733
606.479
615.319
623.207
630.102
635.967
640.77
644.485
647.091
648.573
648.922
648.135
494.24
509.288
523.901
538.012
551.558
564.477
576.706
588.186
598.861
608.677
617.584
625.536
632.491
638.412
643.268
647.031
649.68
651.201
651.583
650.823
494.326
509.408
524.054
538.201
551.784
564.739
577.005
588.523
599.235
609.089
618.033
626.022
633.014
638.971
643.861
647.657
650.339
651.89
652.3
651.567
493.002
508.07
522.705
536.843
550.419
563.369
575.634
587.152
597.867
607.726
616.678
624.677
631.68
637.651
642.557
646.372
649.073
650.646
651.081
650.373
490.285
505.293
519.872
533.957
547.483
560.389
572.612
584.093
594.776
604.607
613.536
621.517
628.508
634.472
639.376
643.193
645.903
647.489
647.942
647.257
486.202
501.104
515.582
529.569
543.004
555.824
567.966
579.374
589.99
599.761
608.638
616.574
623.527
629.462
634.345
638.15
640.855
642.446
642.911
642.248
480.784
495.536
509.867
523.715
537.017
549.71
561.735
573.032
583.547
593.226
602.02
609.884
616.776
622.66
627.504
631.281
633.97
635.556
636.029
635.385
474.07
488.626
502.769
516.436
529.564
542.092
553.96
565.112
575.492
585.047
593.731
601.496
608.303
614.116
618.903
622.637
625.298
626.871
627.345
626.718
466.103
480.422
494.335
507.779
520.694
533.019
544.695
555.667
565.879
575.282
583.826
591.468
598.167
603.888
608.6
612.276
614.898
616.449
616.919
616.306
456.934
470.975
484.618
497.801
510.465
522.55
534
544.759
554.773
563.993
572.371
579.864
586.434
592.044
596.664
600.27
602.84
604.361
604.823
604.222
446.62
460.344
473.678
486.564
498.941
510.753
521.943
532.457
542.244
551.253
559.44
566.762
573.181
578.661
583.175
586.696
589.205
590.689
591.137
590.546
435.224
448.595
461.585
474.138
486.195
497.7
508.6
518.841
528.372
537.146
545.118
552.247
558.495
563.829
568.22
571.645
574.084
575.522
575.952
575.37
422.817
435.8
448.414
460.601
472.306
483.476
494.056
503.996
513.246
521.761
529.496
536.411
542.471
547.643
551.899
555.216
557.576
558.963
559.372
558.797
)
;
    }
    coldSide
    {
        type            mixed;
        refValue        uniform 300;
        refGradient     uniform 0;
        valueFraction   uniform 0.991591;
        source          uniform 0;
        value           nonuniform List<scalar> 
400
(
300.024
300.025
300.025
300.026
300.027
300.027
300.028
300.028
300.029
300.029
300.029
300.03
300.03
300.03
300.03
300.031
300.031
300.031
300.031
300.031
300.025
300.026
300.025
300.026
300.027
300.028
300.028
300.028
300.029
300.029
300.03
300.031
300.031
300.031
300.031
300.031
300.031