/*--------------------------------*- C++ -*----------------------------------*\
| =========                 |                                                 |
| \\      /  F ield         | OpenFOAM: The Open Source CFD Toolbox           |
|  \\    /   O peration     | Version:  2212                                  |
|   \\  /    A nd           | Website:  www.openfoam.com                      |
|    \\/     M anipulation  |                                                 |
\*---------------------------------------------------------------------------*/
FoamFile
{
    version     2.0;
    format      ascii;
    arch        "LSB;label=32;scalar=64";
    class       volScalarField;
    location    "0";
    object      T;
}
// * * * * * * * * * * * * * * * * * * * * * * * * * * * * * * * * * * * * * //

dimensions      [0 0 0 1 0 0 0];

internalField   nonuniform List<scalar> 
3200
(
345.857
345.098
344.872
345.158
346.101
347.211
348.382
349.634
350.517
351.288
351.655
351.469
351.147
350.475
349.521
348.667
347.821
347.475
347.882
348.415
339.671
339.088
338.906
339.159
339.957
340.941
341.963
343.013
343.815
344.485
344.816
344.624
344.359
343.791
342.949
342.204
341.462
341.137
341.461
341.882
333.521
333.066
332.944
333.187
333.827
334.661
335.541
336.418
337.118
337.682
337.96
337.782
337.546
337.079
336.359
335.731
335.097
334.813
335.051
335.382
327.419
327.044
327
327.195
327.661
328.36
329.1
329.802
330.409
330.845
331.126
330.944
330.758
330.381
329.768
329.262
328.724
328.497
328.66
328.925
321.311
321.024
321.034
321.163
321.518
322.068
322.654
323.169
323.685
324.001
324.271
324.102
323.94
323.655
323.175
322.801
322.354
322.171
322.281
322.495
315.212
315.028
315.046
315.125
315.393
315.785
316.173
316.527
316.952
317.148
317.393
317.241
317.091
316.919
316.577
316.293
315.972
315.846
315.919
316.064
309.142
309.045
309.063
309.093
309.256
309.489
309.725
309.916
310.194
310.313
310.466
310.363
310.265
310.168
309.978
309.783
309.597
309.529
309.545
309.638
303.075
303.041
303.035
303.05
303.101
303.179
303.268
303.324
303.417
303.456
303.513
303.475
303.449
303.419
303.345
303.285
303.221
303.208
303.194
303.23
345.68
345.186
344.955
345.211
346.205
347.466
348.661
349.921
350.932
351.681
352.1
352.032
351.526
350.926
349.875
348.787
347.938
347.554
347.885
348.437
339.54
339.175
338.979
339.217
340.071
341.186
342.188
343.274
344.179
344.822
345.186
345.117
344.699
344.146
343.257
342.278
341.543
341.22
341.494
341.96
333.43
333.172
332.997
333.208
333.934
334.857
335.713
336.621
337.433
337.932
338.276
338.214
337.858
337.369
336.649
335.783
335.138
334.896
335.087
335.489
327.358
327.151
327.008
327.194
327.773
328.517
329.251
329.96
330.662
331.061
331.354
331.296
331.009
330.584
330.041
329.279
328.752
328.559
328.689
329.031
321.256
321.121
321.013
321.146
321.626
322.197
322.75
323.299
323.899
324.18
324.421
324.358
324.146
323.804
323.376
322.793
322.371
322.228
322.322
322.575
315.171
315.089
315.024
315.109
315.443
315.869
316.256
316.634
317.12
317.298
317.47
317.411
317.282
317.022
316.708
316.283
316.003
315.886
315.966
316.13
309.087
309.068
309.033
309.071
309.276
309.528
309.764
309.98
310.29
310.394
310.494
310.462
310.402
310.215
310.038
309.774
309.604
309.548
309.579
309.69
303.042
303.034
303.032
303.041
303.111
303.198
303.27
303.346
303.452
303.48
303.512
303.506
303.49
303.427
303.353
303.274
303.22
303.207
303.209
303.246
345.622
345.182
345.062
345.483
346.548
347.782
349.134
350.49
351.505
352.265
352.867
352.844
352.225
351.481
350.363
349.277
348.449
347.842
348.172
348.754
339.488
339.175
339.083
339.455
340.369
341.456
342.603
343.77
344.652
345.311
345.826
345.79
345.241
344.618
343.656
342.696
342.014
341.484
341.733
342.205
333.405
333.166
333.079
333.425
334.19
335.131
336.063
337.037
337.826
338.381
338.802
338.749
338.29
337.757
336.967
336.132
335.559
335.118
335.306
335.707
327.333
327.159
327.092
327.368
328.002
328.766
329.522
330.321
331
331.446
331.776
331.701
331.342
330.904
330.258
329.594
329.109
328.742
328.909
329.203
321.255
321.138
321.089
321.312
321.806
322.397
322.974
323.608
324.149
324.463
324.755
324.659
324.39
324.06
323.541
323.053
322.645
322.38
322.509
322.711
315.2
315.101
315.08
315.219
315.616
316.023
316.426
316.876
317.281
317.468
317.71
317.652
317.428
317.192
316.827
316.504
316.195
316.004
316.108
316.242
309.128
309.064
309.061
309.13
309.392
309.63
309.87
310.128
310.389
310.476
310.637
310.608
310.477
310.332
310.109
309.929
309.748
309.622
309.686
309.755
303.053
303.031
303.037
303.055
303.143
303.233
303.292
303.389
303.488
303.491
303.567
303.558
303.51
303.469
303.403
303.333
303.27
303.225
303.253
303.271
345.851
345.344
345.39
345.882
346.861
348.181
349.577
351.065
352.344
353.224
353.764
353.715
353.128
352.239
351.068
349.959
348.98
348.441
348.629
349.13
339.718
339.335
339.367
339.805
340.647
341.785
342.986
344.276
345.384
346.153
346.606
346.561
346.055
345.283
344.262
343.323
342.425
341.991
342.137
342.515
333.59
333.311
333.33
333.697
334.396
335.394
336.401
337.492
338.433
339.099
339.449
339.417
338.993
338.34
337.472
336.665
335.894
335.549
335.647
335.937
327.479
327.263
327.285
327.583
328.157
328.983
329.81
330.694
331.469
332.001
332.304
332.273
331.916
331.401
330.666
330.01
329.39
329.094
329.168
329.38
321.391
321.238
321.225
321.478
321.933
322.586
323.187
323.912
324.507
324.912
325.144
325.095
324.858
324.451
323.846
323.359
322.882
322.642
322.687
322.857
315.295
315.2
315.164
315.352
315.714
316.167
316.567
317.128
317.528
317.808
317.982
317.933
317.767
317.477
317.036
316.712
316.379
316.174
316.203
316.32
309.197
309.136
309.104
309.234
309.441
309.719
309.951
310.314
310.541
310.694
310.811
310.783
310.658
310.489
310.231
310.034
309.836
309.714
309.731
309.788
303.085
303.068
303.06
303.096
303.177
303.265
303.342
303.451
303.529
303.587
303.622
303.621
303.574
303.511
303.429
303.366
303.296
303.253
303.265
303.278
346.146
345.822
345.784
346.357
347.469
348.722
350.26
351.881
353.212
354.273
354.706
354.73
354.207
353.164
351.866
350.712
349.705
349.093
349.143
349.547
339.954
339.734
339.727
340.193
341.182
342.272
343.575
344.989
346.144
347.061
347.429
347.435
347.001
346.07
344.951
343.947
343.08
342.549
342.598
342.888
333.795
333.637
333.661
334.028
334.879
335.802
336.891
338.109
339.079
339.849
340.138
340.176
339.799
339.007
338.054
337.187
336.457
336.004
336.074
336.272
327.633
327.512
327.58
327.867
328.568
329.313
330.228
331.212
331.987
332.608
332.874
332.913
332.607
331.947
331.15
330.416
329.841
329.471
329.552
329.69
321.487
321.399
321.497
321.689
322.262
322.832
323.535
324.311
324.888
325.372
325.608
325.612
325.383
324.85
324.245
323.66
323.225
322.946
323.018
323.101
315.348
315.299
315.396
315.502
315.932
316.322
316.846
317.377
317.79
318.135
318.307
318.288
318.161
317.764
317.345
316.916
316.623
316.397
316.451
316.495
309.205
309.206
309.244
309.32
309.581
309.797
310.125
310.436
310.675
310.903
310.996
310.976
310.918
310.668
310.427
310.156
309.983
309.861
309.884
309.919
303.086
303.084
303.087
303.127
303.222
303.291
303.394
303.502
303.568
303.649
303.682
303.675
303.66
303.58
303.489
303.407
303.348
303.305
303.321
303.32
346.716
346.346
346.404
347.05
348.036
349.491
351.085
352.737
354.08
355.167
355.828
355.891
355.303
354.19
352.889
351.591
350.632
350.048
350
350.232
340.473
340.184
340.257
340.799
341.663
342.936
344.304
345.728
346.894
347.818
348.373
348.451
347.939
346.965
345.841
344.733
343.88
343.405
343.343
343.47
334.249
334.039
334.079
334.549
335.317
336.368
337.522
338.717
339.699
340.477
340.93
341.022
340.579
339.74
338.795
337.886
337.13
336.72
336.674
336.737
328.037
327.88
327.911
328.286
328.931
329.779
330.732
331.698
332.503
333.145
333.5
333.559
333.222
332.516
331.751
331.036
330.394
330.024
330.019
330.026
321.823
321.706
321.736
322.006
322.539
323.18
323.925
324.665
325.287
325.806
326.081
326.111
325.858
325.289
324.705
324.175
323.647
323.355
323.366
323.325
315.609
315.545
315.55
315.711
316.127
316.562
317.12
317.636
318.07
318.461
318.657
318.653
318.495
318.083
317.661
317.29
316.909
316.7
316.702
316.665
309.362
309.348
309.353
309.442
309.694
309.94
310.295
310.589
310.86
311.092
311.214
311.204
311.107
310.866
310.619
310.395
310.168
310.025
310.026
310.009
303.134
303.144
303.14
303.165
303.255
303.329
303.451
303.552
303.636
303.724
303.764
303.761
303.727
303.637
303.552
303.498
303.409
303.361
303.358
303.363
347.389
347.046
347.048
347.762
348.737
350.271
351.906
353.628
355.064
356.302
356.87
356.933
356.363
355.228
353.87
352.557
351.477
351.005
350.756
351.046
341.075
340.783
340.79
341.411
342.237
343.596
345.024
346.499
347.743
348.808
349.293
349.346
348.848
347.848
346.704
345.567
344.607
344.203
343.975
344.177
334.77
334.527
334.527
335.062
335.767
336.931
338.147
339.355
340.425
341.331
341.723
341.79
341.346
340.473
339.555
338.586
337.717
337.374
337.211
337.339
328.484
328.262
328.276
328.695
329.298
330.266
331.233
332.215
333.099
333.861
334.157
334.233
333.858
333.104
332.395
331.573
330.857
330.57
330.461
330.524
322.156
322.001
322.018
322.322
322.799
323.542
324.312
325.065
325.765
326.34
326.57
326.654
326.347
325.736
325.215
324.549
324.023
323.771
323.717
323.722
315.833
315.728
315.743
315.956
316.299
316.841
317.381
317.908
318.421
318.807
318.991
319.045
318.828
318.388
318.026
317.538
317.172
316.96
316.951
316.939
309.529
309.443
309.449
309.569
309.802
310.105
310.435
310.752
311.055
311.291
311.408
311.443
311.309
311.056
310.841
310.523
310.313
310.178
310.186
310.168
303.203
303.17
303.16
303.2
303.293
303.393
303.503
303.593
303.702
303.789
303.826
303.838
303.79
303.704
303.64
303.521
303.455
303.419
303.419
303.413
348.074
347.823
347.725
348.392
349.458
351.002
352.757
354.464
356.011
357.338
357.994
358.022
357.354
356.174
354.847
353.604
352.372
351.912
351.681
352.073
341.661
341.442
341.381
341.969
342.881
344.234
345.745
347.224
348.558
349.705
350.261
350.261
349.713
348.702
347.544
346.454
345.363
344.96
344.759
345.066
335.256
335.045
335.033
335.528
336.321
337.473
338.748
339.988
341.133
342.089
342.554
342.511
342.081
341.234
340.263
339.314
338.391
338.041
337.857
338.108
328.828
328.671
328.665
329.069
329.771
330.692
331.734
332.724
333.68
334.457
334.83
334.792
334.48
333.722
332.956
332.165
331.41
331.144
330.953
331.182
322.412
322.316
322.303
322.637
323.193
323.907
324.709
325.486
326.22
326.814
327.101
327.08
326.832
326.207
325.663
325.017
324.438
324.24
324.066
324.255
316.004
315.954
315.968
316.174
316.579
317.092
317.681
318.228
318.754
319.163
319.363
319.37
319.167
318.718
318.343
317.877
317.476
317.313
317.193
317.339
309.599
309.589
309.602
309.734
309.972
310.279
310.618
310.951
311.277
311.514
311.639
311.624
311.521
311.252
311.023
310.725
310.488
310.382
310.312
310.403
303.212
303.218
303.205
303.258
303.342
303.456
303.548
303.675
303.792
303.859
303.9
303.904
303.859
303.773
303.694
303.592
303.512
303.473
303.455
303.492
348.834
348.589
348.564
349.194
350.246
351.901
353.612
355.331
356.947
358.206
358.905
358.928
358.334
357.111
355.793
354.53
353.548
352.894
352.685
353.075
342.309
342.123
342.105
342.662
343.566
345.017
346.496
347.981
349.391
350.448
351.059
351.033
350.551
349.483
348.348
347.264
346.388
345.831
345.63
345.984
335.789
335.661
335.642
336.141
336.877
338.113
339.374
340.635
341.808
342.711
343.222
343.19
342.772
341.876
340.918
339.999
339.236
338.789
338.603
338.886
329.281
329.182
329.182
329.616
330.201
331.189
332.267
333.282
334.247
334.981
335.384
335.363
335.004
334.268
333.508
332.744
332.113
331.739
331.574
331.83
322.791
322.707
322.722
323.049
323.504
324.268
325.125
325.903
326.666
327.222
327.539
327.504
327.236
326.653
326.083
325.484
324.978
324.689
324.552
324.766
316.286
316.245
316.253
316.477
316.809
317.344
317.989
318.531
319.064
319.467
319.702
319.656
319.463
319.027
318.662
318.221
317.853
317.633
317.544
317.703
309.788
309.771
309.78
309.908
310.098
310.411
310.812
311.126
311.448
311.685
311.84
311.813
311.701
311.424
311.236
310.949
310.722
310.597
310.533
310.641
303.28
303.275
303.285
303.313
303.388
303.49
303.615
303.732
303.835
303.916
303.97
303.957
303.928
303.829
303.768
303.667
303.602
303.556
303.526
303.564
349.559
349.375
349.443
350.001
351.028
352.644
354.261
356.023
357.676
359.073
359.654
359.778
359.089
357.943
356.694
355.391
354.367
353.803
353.648
354.046
342.95
342.773
342.857
343.338
344.25
345.662
347.012
348.565
350.018
351.205
351.693
351.797
351.213
350.217
349.114
348.005
347.1
346.639
346.473
346.779
336.337
336.194
336.277
336.708
337.451
338.651
339.803
341.129
342.347
343.341
343.759
343.833
343.335
342.509
341.573
340.636
339.852
339.479
339.315
339.532
329.729
329.628
329.698
330.046
330.67
331.645
332.599
333.684
334.659
335.48
335.823
335.883
335.471
334.773
334.033
333.289
332.605
332.332
332.18
332.315
323.156
323.049
323.11
323.383
323.878
324.643
325.395
326.222
326.969
327.608
327.868
327.918
327.595
327.063
326.471
325.896
325.362
325.164
325.034
325.148
316.554
316.478
316.519
316.724
317.092
317.625
318.17
318.753
319.303
319.749
319.912
319.961
319.711
319.367
318.911
318.516
318.123
317.986
317.891
317.971
309.952
309.896
309.927
310.06
310.281
310.589
310.922
311.273
311.596
311.865
311.957
311.992
311.843
311.635
311.359
311.135
310.882
310.791
310.753
310.81
303.34
303.313
303.332
303.383
303.45
303.554
303.662
303.778
303.891
303.982
304.01
304.019
303.968
303.899
303.799
303.733
303.642
303.611
303.61
303.618
350.566
350.174
350.261
350.865
351.873
353.317
354.955
356.657
358.312
359.472
360.273
360.36
359.856
358.742
357.481
356.274
355.371
354.782
354.692
355.127
343.807
343.489
343.563
344.11
344.979
346.224
347.641
349.133
350.555
351.549
352.255
352.325
351.868
350.913
349.805
348.738
347.981
347.456
347.36
347.689
337.064
336.815
336.86
337.337
338.085
339.146
340.333
341.598
342.778
343.618
344.236
344.291
343.887
343.096
342.149
341.235
340.594
340.167
340.054
340.304
330.323
330.135
330.174
330.547
331.18
332.067
333.029
334.05
334.994
335.7
336.198
336.253
335.926
335.282
334.476
333.766
333.21
332.861
332.751
332.961
323.568
323.449
323.487
323.762
324.291
324.967
325.696
326.515
327.226
327.794
328.175
328.207
327.97
327.473
326.814
326.279
325.841
325.569
325.466
325.638
316.833
316.744
316.785
316.97
317.388
317.875
318.375
318.95
319.469
319.908
320.12
320.133
319.988
319.643
319.167
318.782
318.48
318.292
318.191
318.32
310.098
310.052
310.077
310.193
310.452
310.751
311.051
311.392
311.703
311.973
312.079
312.094
312.018
311.817
311.519
311.283
311.08
311.002
310.929
310.999
303.381
303.369
303.377
303.411
303.497
303.611
303.71
303.82
303.923
304.019
304.053
304.043
304.034
303.96
303.865
303.784
303.712
303.697
303.664
303.684
351.338
351.056
351.127
351.676
352.718
354.134
355.682
357.303
358.748
360.02
360.703
360.775
360.323
359.418
358.245
357.143
356.319
355.705
355.741
356.061
344.467
344.239
344.328
344.803
345.707
346.931
348.286
349.669
350.948
351.996
352.618
352.674
352.259
351.502
350.466
349.511
348.796
348.263
348.277
348.551
337.593
337.453
337.532
337.912
338.678
339.72
340.889
342.062
343.138
343.989
344.545
344.576
344.228
343.593
342.696
341.904
341.288
340.837
340.824
341.069
330.768
330.664
330.729
331.04
331.661
332.495
333.486
334.442
335.309
336.01
336.479
336.503
336.211
335.685
334.935
334.304
333.78
333.421
333.399
333.597
323.955
323.847
323.924
324.165
324.663
325.277
326.074
326.804
327.449
328.008
328.403
328.43
328.19
327.761
327.174
326.708
326.281
326.021
325.958
326.119
317.133
317.034
317.114
317.27
317.649
318.071
318.654
319.146
319.614
320.017
320.309
320.339
320.159
319.842
319.442
319.099
318.784
318.612
318.536
318.662
310.305
310.239
310.289
310.381
310.6
310.861
311.219
311.496
311.777
312.031
312.224
312.232
312.117
311.912
311.688
311.491
311.277
311.192
311.127
311.2
303.463
303.428
303.452
303.482
303.554
303.643
303.757
303.853
303.941
304.035
304.105
304.102
304.063
303.99
303.922
303.853
303.786
303.749
303.729
303.751
352.146
351.946
352.04
352.527
353.551
354.712
356.323
357.881
359.166
360.406
361.039
361.278
360.832
360
359.005
357.866
356.984
356.637
356.664
356.939
345.152
345.033
345.113
345.542
346.447
347.428
348.847
350.161
351.29
352.367
352.888
353.083
352.705
351.99
351.118
350.156
349.354
349.066
349.08
349.288
338.171
338.103
338.208
338.552
339.335
340.151
341.357
342.455
343.417
344.318
344.758
344.922
344.574
343.986
343.251
342.454
341.73
341.515
341.531
341.683
331.242
331.167
331.287
331.549
332.194
332.889
333.871
334.752
335.556
336.272
336.626
336.755
336.461
336.004
335.389
334.748
334.136
333.957
333.975
334.11
324.302
324.251
324.348
324.562
325.041
325.619
326.365
327.048
327.689
328.22
328.498
328.59
328.38
328.021
327.535
327.033
326.559
326.407
326.424
326.542
317.365
317.342
317.408
317.581
317.882
318.304
318.852
319.338
319.79
320.154
320.369
320.435
320.272
320.008
319.669
319.339
318.989
318.848
318.887
318.965
310.429
310.444
310.465
310.579
310.729
311.005
311.32
311.619
311.897
312.109
312.251
312.272
312.181
311.999
311.81
311.616
311.411
311.304
311.355
311.397
303.487
303.506
303.504
303.555
303.598
303.699
303.792
303.892
303.985
304.06
304.112
304.121
304.079
304.011
303.967
303.89
303.823
303.786
303.803
303.823
352.978
352.789
352.913
353.42
354.211
355.395
356.794
358.28
359.648
360.732
361.426
361.621
361.217
360.412
359.603
358.589
357.865
357.431
357.543
357.936
345.898
345.742
345.873
346.317
346.994
348.02
349.252
350.525
351.681
352.639
353.239
353.394
353.053
352.367
351.672
350.761
350.132
349.748
349.845
350.17
338.822
338.718
338.826
339.214
339.776
340.662
341.704
342.775
343.735
344.539
345.065
345.179
344.893
344.306
343.744
342.965
342.418
342.084
342.176
342.419
331.763
331.699
331.798
332.114
332.54
333.287
334.137
335.008
335.785
336.456
336.881
336.98
336.723
336.251
335.823
335.155
334.701
334.414
334.522
334.693
324.726
324.68
324.766
325.012
325.318
325.905
326.567
327.247
327.813
328.352
328.705
328.772
328.56
328.202
327.881
327.351
326.99
326.752
326.858
326.972
317.68
317.663
317.716
317.909
318.093
318.515
318.99
319.481
319.856
320.267
320.514
320.549
320.403
320.165
319.914
319.545
319.307
319.115
319.203
319.264
310.63
310.619
310.655
310.755
310.87
311.133
311.409
311.714
311.952
312.17
312.321
312.326
312.258
312.122
311.949
311.756
311.618
311.487
311.539
311.562
303.563
303.56
303.572
303.605
303.645
303.732
303.83
303.923
304.006
304.092
304.126
304.124
304.102
304.062
304.005
303.945
303.9
303.851
303.868
303.879
353.854
353.679
353.768
354.071
354.865
356.127
357.364
358.877
360.039
361.078
361.627
361.823
361.515
360.83
360.187
359.414
358.689
358.388
358.446
358.895
346.647
346.522
346.604
346.891
347.547
348.671
349.705
351.025
352.018
352.926
353.421
353.592
353.311
352.69
352.184
351.497
350.862
350.571
350.614
351.015
339.454
339.354
339.441
339.71
340.239
341.2
342.073
343.2
344.004
344.795
345.209
345.333
345.129
344.562
344.156
343.575
343.038
342.769
342.834
343.126
332.281
332.216
332.292
332.511
332.938
333.719
334.451
335.379
336.027
336.682
337.002
337.098
336.933
336.432
336.13
335.667
335.23
334.983
335.067
335.284
325.133
325.078
325.126
325.308
325.619
326.241
326.841
327.533
328.035
328.553
328.793
328.874
328.712
328.337
328.119
327.739
327.421
327.2
327.284
327.45
317.974
317.941
317.967
318.085
318.287
318.749
319.205
319.682
320.042
320.414
320.587
320.626
320.509
320.267
320.088
319.828
319.595
319.419
319.503
319.623
310.793
310.797
310.792
310.856
310.991
311.26
311.568
311.813
312.037
312.261
312.372
312.392
312.322
312.183
312.052
311.933
311.766
311.643
311.706
311.789
303.62
303.617
303.619
303.635
303.681
303.775
303.885
303.954
304.028
304.113
304.144
304.154
304.128
304.083
304.037
304.007
303.952
303.888
303.919
303.962
354.74
354.422
354.6
354.796
355.672
356.817
357.99
359.397
360.465
361.473
361.829
362.133
361.929
361.385
360.838
360.09
359.524
359.28
359.363
359.789
347.39
347.16
347.321
347.486
348.258
349.248
350.245
351.485
352.404
353.284
353.582
353.843
353.654
353.183
352.703
352.067
351.575
351.361
351.44
351.757
340.051
339.901
340.069
340.205
340.836
341.672
342.555
343.571
344.365
345.105
345.344
345.572
345.408
345.001
344.604
344.062
343.626
343.437
343.518
343.777
332.752
332.645
332.804
332.916
333.418
334.103
334.852
335.664
336.311
336.906
337.126
337.298
337.169
336.817
336.484
336.051
335.697
335.531
335.605
335.821
325.488
325.417
325.538
325.624
326.001
326.533
327.112
327.745
328.244
328.694
328.908
329.033
328.94
328.644
328.387
328.027
327.771
327.626
327.701
327.874
318.218
318.158
318.271
318.305
318.564
318.941
319.37
319.846
320.199
320.498
320.677
320.767
320.664
320.475
320.305
320.028
319.851
319.732
319.801
319.916
310.962
310.881
310.968
310.999
311.133
311.359
311.623
311.923
312.143
312.302
312.427
312.5
312.402
312.307
312.189
312.022
311.936
311.845
311.9
311.946
303.68
303.641
303.681
303.681
303.732
303.804
303.893
304.002
304.082
304.118
304.171
304.192
304.148
304.126
304.083
304.033
304.001
303.976
303.986
304.001
355.78
355.317
355.421
355.683
356.515
357.625
358.754
359.935
360.962
361.794
362.203
362.437
362.352
361.779
361.312
360.811
360.326
360.231
360.323
360.685
348.29
347.917
348.026
348.276
348.963
349.927
350.905
351.931
352.822
353.542
353.908
354.104
354.049
353.541
353.115
352.674
352.272
352.191
352.222
352.516
340.822
340.521
340.628
340.86
341.428
342.232
343.078
343.966
344.704
345.294
345.603
345.79
345.758
345.309
344.946
344.558
344.22
344.151
344.172
344.408
333.383
333.143
333.26
333.453
333.908
334.554
335.262
336.012
336.584
337.054
337.314
337.484
337.451
337.096
336.789
336.442
336.199
336.118
336.141
336.319
325.953
325.76
325.89
326.049
326.412
326.894
327.424
328.028
328.461
328.815
329.03
329.168
329.158
328.851
328.637
328.333
328.161
328.095
328.102
328.254
318.531
318.399
318.517
318.645
318.883
319.229
319.59
320.045
320.334
320.584
320.748
320.829
320.841
320.612
320.482
320.25
320.123
320.077
320.061
320.19
311.133
311.057
311.141
311.194
311.336
311.555
311.758
312.051
312.215
312.365
312.462
312.51
312.519
312.377
312.297
312.159
312.093
312.051
312.034
312.125
303.733
303.711
303.721
303.753
303.791
303.871
303.932
304.033
304.102
304.147
304.187
304.191
304.198
304.146
304.121
304.077
304.057
304.035
304.031
304.068
356.823
356.35
356.331
356.671
357.347
358.338
359.374
360.419
361.371
362.104
362.559
362.88
362.787
362.434
361.884
361.468
361.223
361.087
361.276
361.646
349.186
348.809
348.808
349.103
349.683
350.558
351.464
352.359
353.201
353.805
354.213
354.501
354.393
354.09
353.612
353.218
353.008
352.94
353.059
353.358
341.597
341.288
341.294
341.53
342.042
342.791
343.564
344.306
345.034
345.53
345.864
346.12
346.005
345.786
345.37
345.01
344.812
344.796
344.86
345.105
334.011
333.761
333.765
333.99
334.398
335.001
335.674
336.256
336.881
337.258
337.536
337.741
337.651
337.472
337.127
336.824
336.654
336.632
336.679
336.89
326.427
326.245
326.25
326.445
326.779
327.246
327.762
328.218
328.718
328.975
329.203
329.361
329.303
329.178
328.882
328.657
328.505
328.472
328.506
328.685
318.881
318.739
318.729
318.908
319.16
319.473
319.874
320.178
320.544
320.701
320.871
320.968
320.943
320.862
320.604
320.483
320.351
320.345
320.368
320.503
311.34
311.253
311.253
311.364
311.516
311.693
311.952
312.132
312.344
312.439
312.525
312.592
312.594
312.527
312.355
312.303
312.229
312.229
312.223
312.303
303.802
303.774
303.775
303.816
303.863
303.925
304.002
304.063
304.147
304.17
304.202
304.213
304.225
304.2
304.139
304.135
304.11
304.096
304.092
304.129
357.801
357.242
357.298
357.552
358.124
358.979
360.004
361.075
361.794
362.683
362.941
363.272
363.256
362.846
362.533
362.15
361.924
361.893
362.072
362.535
350.012
349.557
349.631
349.855
350.346
351.089
351.98
352.914
353.522
354.3
354.512
354.847
354.83
354.452
354.157
353.807
353.626
353.59
353.725
354.099
342.274
341.905
341.974
342.164
342.595
343.224
343.981
344.78
345.288
345.928
346.115
346.428
346.41
346.056
345.821
345.494
345.363
345.307
345.397
345.713
334.558
334.284
334.327
334.49
334.84
335.366
335.99
336.659
337.085
337.582
337.74
338.013
337.981
337.666
337.478
337.211
337.11
337.071
337.107
337.377
326.867
326.666
326.696
326.826
327.111
327.507
328.004
328.552
328.881
329.25
329.373
329.564
329.553
329.312
329.147
328.947
328.866
328.82
328.818
329.075
319.209
319.043
319.068
319.181
319.391
319.666
320.022
320.415
320.646
320.916
320.995
321.097
321.129
320.951
320.818
320.683
320.626
320.586
320.568
320.778
311.539
311.45
311.457
311.519
311.659
311.824
312.008
312.27
312.407
312.567
312.606
312.668
312.683
312.594
312.498
312.425
312.39
312.358
312.352
312.481
303.856
303.836
303.842
303.877
303.898
303.96
304.022
304.108
304.163
304.212
304.221
304.249
304.252
304.233
304.185
304.173
304.151
304.136
304.143
304.182
358.656
358.09
357.99
358.118
358.83
359.566
360.419
361.411
362.162
362.856
363.326
363.593
363.603
363.26
362.986
362.587
362.484
362.478
362.775
363.204
350.727
350.28
350.197
350.311
350.943
351.579
352.296
353.187
353.861
354.427
354.845
355.102
355.074
354.754
354.512
354.145
354.073
354.043
354.246
354.625
342.835
342.513
342.438
342.539
343.111
343.63
344.227
344.99
345.576
346.051
346.383
346.602
346.577
346.294
346.092
345.762
345.724
345.674
345.825
346.141
335.011
334.765
334.682
334.803
335.276
335.701
336.16
336.808
337.296
337.663
337.944
338.14
338.089
337.829
337.694
337.419
337.401
337.345
337.448
337.695
327.217
327.04
326.954
327.085
327.433
327.773
328.114
328.618
329.032
329.294
329.516
329.656
329.596
329.395
329.302
329.095
329.108
329.035
329.129
329.29
319.443
319.308
319.229
319.354
319.599
319.827
320.082
320.444
320.764
320.932
321.103
321.182
321.126
320.998
320.915
320.804
320.807
320.734
320.814
320.903
311.681
311.585
311.547
311.614
311.767
311.911
312.07
312.262
312.483
312.605
312.685
312.729
312.693
312.617
312.565
312.51
312.501
312.458
312.496
312.538
303.92
303.877
303.869
303.891
303.945
303.993
304.05
304.098
304.187
304.23
304.255
304.279
304.25
304.226
304.204
304.197
304.194
304.174
304.19
304.2
)
;

boundaryField
{
    hotSide
    {
        type            fixedGradient;
        gradient        nonuniform List<scalar> 
400
(
495.382
492.478
491.923
493.64
497.37
502.742
509.368
516.898
525.051
533.621
542.471
551.528
560.778
570.259
580.06
590.316
601.193
612.857
625.439
638.993
483.874
481.337
481.309
483.695
488.175
494.308
501.643
509.788
518.436
527.369
536.447
545.599
554.819
564.157
573.723
583.678
594.22
605.557
617.854
631.184
479.903
478.049
478.659
481.622
486.616
493.196
500.907
509.349
518.211
527.266
536.374
545.466
554.54
563.658
572.939
582.553
592.711
603.627
615.473
628.332
482.946
482.076
483.449
486.944
492.275
499.052
506.862
515.332
524.156
533.113
542.059
550.929
559.728
568.524
577.44
586.647
596.341
606.721
617.942
630.09
491.135
491.454
493.74
497.861
503.565
510.521
518.371
526.775
535.446
544.17
552.809
561.304
569.671
577.987
586.382
595.022
604.09
613.763
624.181
635.432
502.315
503.94
507.297
512.235
518.516
525.839
533.875
542.305
550.855
559.315
567.559
575.544
583.303
590.938
598.595
606.449
614.68
623.454
632.909
643.135
514.628
517.613
522.177
528.143
535.264
543.233
551.716
560.382
568.945
577.19
585
592.358
599.337
606.082
612.779
619.628
626.826
634.546
642.928
652.067
526.547
530.876
536.718
543.873
552.067
560.962
570.179
579.336
588.097
596.219
603.589
610.23
616.282
621.963
627.524
633.217
639.267
645.861
653.145
661.219
536.771
542.318
549.391
557.773
567.161
577.169
587.347
597.223
606.366
614.475
621.43
627.314
632.365
636.909
641.285
645.806
650.731
656.263
662.547
669.683
544.193
550.68
558.756
568.198
578.683
589.78
600.962
611.646
621.284
629.484
636.116
641.332
645.492
649.04
652.407
655.962
659.989
664.699
670.233
676.684
547.985
554.97
563.618
573.703
584.894
596.733
608.64
619.953
630.029
638.403
644.931
649.818
653.51
656.533
659.378
662.443
666.025
670.337
675.516
681.649
547.753
554.69
563.34
573.478
584.765
596.737
608.808
620.31
630.598
639.204
645.976
651.111
655.04
658.284
661.328
664.569
668.308
672.759
678.064
684.312
543.673
550.022
558.121
567.744
578.549
590.084
601.797
613.083
623.378
632.274
639.621
645.546
650.38
654.549
658.476
662.528
666.998
672.104
677.999
684.78
536.506
541.847
549.002
557.75
567.756
578.589
589.743
600.697
610.977
620.244
628.344
635.327
641.404
646.879
652.088
657.348
662.931
669.057
675.888
683.531
527.537
531.612
537.639
545.408
554.593
564.771
575.468
586.213
596.595
606.312
615.203
623.259
630.596
637.421
643.987
650.562
657.396
664.702
672.648
681.35
518.511
521.219
526.104
532.975
541.496
551.227
561.686
572.415
583.023
593.223
602.849
611.85
620.285
628.294
636.076
643.859
651.876
660.34
669.424
679.243
511.646
513.02
516.851
522.968
531.003
540.467
550.84
561.648
572.506
583.13
593.349
603.095
612.391
621.338
630.098
638.876
647.896
657.379
667.504
678.381
509.526
509.739
512.643
518.082
525.658
534.832
545.052
555.832
566.79
577.65
588.242
598.487
608.39
618.025
627.527
637.082
646.91
657.231
668.228
680.007
514.42
513.78
515.878
520.577
527.491
536.094
545.846
556.28
567.028
577.827
588.509
598.989
609.256
619.361
629.418
639.587
650.065
661.059
672.735
685.187
527.082
525.932
527.335
531.185
537.164
544.833
553.729
563.438
573.624
584.041
594.524
604.982
615.388
625.774
636.224
646.867
657.861
669.368
681.521
694.392
)
;
    }
    coldSide
    {
        type            mixed;
        refValue        uniform 300;
        refGradient     uniform 0;
        valueFraction   uniform 0.991591;
        source          uniform 0;
        value           nonuniform List<scalar> 
400
(
300.026
300.026
300.026
300.026
300.026
300.026
300.027
300.027
300.028
300.028
300.028
300.029
300.029
300.03
300.03
300.031
300.031
300.032
300.032
300.033
300.026
300.026
300.025
300.026
300.026
300.026
300.027
300.027
300.028
300.028
300.028
300.029
300.029
300.03
300.03