/*--------------------------------*- C++ -*----------------------------------*\
| =========                 |                                                 |
| \\      /  F ield         | OpenFOAM: The Open Source CFD Toolbox           |
|  \\    /   O peration     | Version:  2212                                  |
|   \\  /    A nd           | Website:  www.openfoam.com                      |
|    \\/     M anipulation  |                                                 |
\*---------------------------------------------------------------------------*/
FoamFile
{
    version     2.0;
    format      ascii;
    arch        "LSB;label=32;scalar=64";
    class       volScalarField;
    location    "0";
    object      relativeErrorField;
}
// * * * * * * * * * * * * * * * * * * * * * * * * * * * * * * * * * * * * * //

dimensions      [0 0 0 1 0 0 0];

internalField   nonuniform List<scalar> 
3200
(
0.00567693
0.00230623
0.000303042
0.00116269
0.00386233
0.00077079
0.00290936
0.00341946
0.00634059
0.00519982
0.00704252
0.00115187
0.00361934
0.00371712
0.0026967
0.00501903
0.00427771
4.49418e-05
0.00327184
0.00633438
0.000748918
0.00567288
0.00501855
0.00378371
0.00189311
0.00550069
0.00476242
0.000322456
0.000626383
0.00734892
0.00459677
0.00617049
0.00214971
0.00199668
0.00945748
0.00433153
0.00016969
0.00134072
0.00178792
0.00130516
0.00180367
0.00186348
0.00146989
0.00136428
0.00231497
0.00924444
0.00179301
0.000461528
0.00355294
0.00546931
0.00290149
0.00515524
0.00823719
0.00738022
0.0071856
0.00315874
0.000478525
0.000940502
0.00274517
0.0027134
0.00568501
0.00122958
0.0005535
0.00200484
0.00649629
0.000582305
0.00061314
0.000107394
0.000800024
0.00293384
0.000729427
0.00234893
0.00226798
0.00358252
0.00199383
0.00254843
0.00383526
0.000570753
0.00259332
0.00467314
0.00326565
0.00250635
0.00196793
0.00330315
0.00167184
0.000660332
0.00630984
0.00232756
0.0031209
0.000220581
0.00373276
0.00205294
0.000946195
0.00420195
0.00325131
0.00225974
0.00285124
0.00245115
0.00192266
0.00182196
0.000911112
0.000747238
0.00147142
0.0017978
0.00141321
0.00218955
0.00248395
0.000773205
0.000748252
0.00433608
0.00354072
0.000570835
0.00326119
0.00145022
0.00186471
0.00416854
0.000380749
0.00376999
0.000231723
0.00188014
0.00239685
0.00439716
0.00242923
0.00159404
0.00267984
0.00435013
0.00476793
0.00709799
0.00475854
0.00161192
0.000613028
0.000764849
0.00214062
0.00312493
0.00430379
0.00275787
0.00419581
0.000838563
0.000105981
0.0014463
0.00182451
0.000674232
0.00499846
0.000552968
0.00480788
0.00155562
0.00112717
0.00277673
0.00454509
0.00129114
0.00244494
0.000863408
0.00357359
0.00200283
0.00118037
0.00408756
0.00138852
0.00627867
0.000561286
0.00132557
0.00284774
0.00329401
0.000293092
0.0036738
0.000345068
0.00196671
0.00337817
0.00103516
0.00452849
0.00196533
0.00314733
0.00423819
0.00284112
0.00485208
0.00565453
0.00255119
0.0025784
0.000272975
0.00496048
0.00608605
0.00167393
0.000762177
0.000116685
0.000673882
0.0020483
0.00100164
0.00271274
0.00011342
0.00116909
0.000309442
0.000385031
0.00463623
0.000428257
0.00636617
0.000815478
0.00185952
0.000613962
0.00388561
0.00106434
0.000403408
0.00147489
0.00269251
0.00402319
0.000437362
0.00237294
0.00571362
0.00485505
0.00364255
0.00729106
0.00467515
9.30726e-05
0.00294517
0.00385906
0.00395172
0.00217193
0.00284005
0.00429133
0.00203523
0.000736564
0.00465598
0.00309889
0.00516146
0.000227775
0.00476039
0.000700292
0.00398083
0.00310765
0.000911795
0.00306777
0.00318494
0.00241334
0.00412273
0.00140364
0.00236061
0.00272529
0.00119412
0.000324704
0.00413557
0.0021093
0.000315587
0.00752363
0.0006656
0.00403095
0.00669226
0.00365095
0.00134089
4.59778e-05
0.000927757
0.000754711
0.00341067
0.000898496
0.00632432
0.00364201
0.00255384
0.000380063
0.00564067
0.00173545
0.000364129
0.00102443
0.00346998
0.00384344
0.00233666
0.00191998
0.00181019
0.0018095
0.00588219
0.00249237
3.67158e-05
0.00340073
0.000267551
0.00525631
0.00281142
0.00232835
0.0102429
0.000439886
0.00485834
0.00205655
0.000412963
0.00353479
0.00279547
0.000773605
0.000825546
0.00270349
0.00105202
0.00148946
0.00451581
0.00110316
0.00349101
0.00239297
0.000277385
0.000999648
0.000694511
0.00356848
0.00304941
0.00220246
0.00234336
0.00188581
0.00143298
0.00135139
0.000622218
0.00208338
0.00275692
0.00285574
0.00176382
0.00335176
0.000438125
0.000694988
0.00313061
0.00143525
0.00300518
0.00143963
0.00200972
0.00224442
0.0014938
0.00157574
0.00429169
0.00551944
0.00259502
0.000251151
0.000153698
0.00730521
0.00402859
0.00400842
6.87383e-05
0.00535845
0.00328352
0.00278671
0.00637412
0.0059295
0.00163215
0.000830132
0.00227509
0.00606475
0.00192457
0.00155567
0.00301001
0.00397404
0.00126369
0.000536917
0.0015564
0.00363373
0.000875398
0.00229364
0.000843356
0.00464465
0.000972745
0.0017592
0.000428795
0.0051229
0.00787564
0.00346139
0.00101444
0.00099726
0.00199147
0.0072668
0.002301
0.00311036
0.000632413
0.00371636
0.00426031
0.0046716
0.000271517
2.81598e-06
0.00299785
7.1866e-06
0.00109499
0.00723831
0.00174115
0.00414698
0.0036911
0.00242574
0.000241754
0.00213521
0.00474573
0.000735467
0.00115726
0.000203623
0.000848735
0.00361634
0.00430164
0.00351905
0.00149954
0.00117256
0.000407511
0.00292822
0.00200442
0.00625753
0.000596104
0.00370815
0.00709306
0.00611152
0.00563076
0.002107
0.000452218
0.00264742
0.000818864
0.000442478
0.000766379
0.00438946
0.000875394
0.00149128
8.17131e-05
0.00396434
0.00166362
0.000879924
0.00352931
0.00016722
0.00397248
0.000805837
0.00142387
0.00238961
0.000619684
0.000553202
0.00255754
0.000868935
0.000880207
0.00387112
0.0035222
0.0029749
0.000613922
0.000951085
0.00284395
0.00653586
0.000999919
0.00264935
0.000225707
0.00345313
0.00123784
0.00220182
0.00181368
0.00411774
0.00255291
0.00570048
0.00456864
0.00046284
0.00153865
6.56419e-05
0.000299191
0.00237775
0.00379619
0.00368772
0.000489931
0.0064289
0.00444795
0.00272241
0.000602889
0.00280771
0.00056003
0.00308667
0.00168461
0.00474362
0.00149222
0.00513172
0.00323566
0.000528119
0.00231007
0.00534061
0.000515095
0.000890557
0.0018622
0.000134715
0.00329005
0.000683049
2.75884e-05
0.00253233
0.00148754
0.00173673
0.00159923
0.00213422
0.00633698
0.00296111
0.00165349
0.00327443
0.00511589
0.00188567
0.000155612
0.00130697
0.000889464
0.00205874
2.14601e-05
0.0039615
0.000902744
6.90675e-05
0.00213749
0.00448923
0.0026012
0.00133545
0.00608461
0.00355439
0.00624182
0.00429885
0.00111012
0.00299827
0.00153285
0.00402161
0.000149903
0.000827603
0.000393199
0.00218452
0.00303087
0.0039875
0.00085678
0.00412008
0.000736941
0.000190191
0.00066169
0.00320083
0.00067843
0.00452671
7.46641e-05
0.00136791
0.00646586
0.00040853
0.00250036
0.00154427
0.000580501
0.00100567
0.00589206
0.000311609
0.00691656
0.00650102
0.00195937
0.00137143
0.0037379
0.00320728
0.00394834
0.00387763
0.0026938
0.00572981
0.00331647
0.00213996
0.000540783
0.00321327
0.00371797
0.000790507
0.00114291
0.000139312
0.00394453
0.00120728
0.00488172
0.0020978
0.000988507
0.00174895
0.00341886
0.00271764
0.00292593
0.00161354
0.000819279
0.00156722
0.00014032
0.000117717
0.000494944
0.00617743
0.00152928
0.00183352
0.0010557
0.00734023
0.000655221
0.00184903
0.000329053
0.00296052
0.000531434
0.001321
0.00258119
0.00018097
0.00336499
0.00037611
0.00104191
0.00108588
0.00010842
0.00264328
0.0040398
0.000442711
0.00181865
0.000509597
0.00648117
0.00570508
0.00432085
0.000110082
0.000952947
0.00500591
0.000295664
0.00134879
0.00137912
0.00316052
0.00216637
0.0030313
0.00173286
0.000983498
0.00223421
0.00112545
2.68564e-05
0.000544296
0.000718229
0.00286196
0.00466954
0.00307813
0.000107401
0.0015609
0.00174596
0.000126668
0.000756851
0.000490705
0.000709853
0.00190109
0.00194109
0.00108511
0.00673585
0.00487427
0.00409463
0.00120075
0.00241913
0.00157674
0.000355923
0.00512408
0.000527184
0.000514022
0.00024163
0.000727769
0.00199343
0.000905226
0.00790306
0.00270849
0.00440566
0.00399036
0.00180503
0.00465628
0.00184456
0.00278153
0.00416126
0.00260989
0.00375923
0.00113158
0.000220537
0.00288442
0.000767618
0.00132702
0.00279752
0.00341225
0.00346146
0.00392808
0.000858795
0.0030419
0.00386413
0.00952456
0.00326418
0.0036296
0.00232795
0.00160923
0.00406364
0.00270866
0.000240056
0.000420953
0.00104232
0.00392882
0.000104605
0.0022836
5.27246e-05
0.000916131
0.000985045
0.00653592
0.00462127
0.00356981
0.00508546
6.33466e-05
0.000289195
0.00155005
0.00131041
0.00815211
0.00415118
0.00196594
0.00185754
0.00683786
0.000200915
0.00116509
0.000681151
0.00240932
0.000925512
0.0033709
0.00823625
0.00564476
0.00413009
0.000656525
0.00126727
0.00420364
0.00234745
0.00280091
0.00542795
0.00207794
0.00428193
0.000186523
0.0013522
0.00161644
0.000674699
0.00150874
0.00181887
0.00358485
0.00239435
0.000580004
0.00543197
0.0017962
0.000519212
0.00265877
0.00818883
0.00458264
0.000670823
0.00139337
0.0021955
0.00369003
0.00250902
0.000535914
0.00192512
0.00509062
0.000170341
0.000658322
0.00269822
0.00283226
0.00252541
0.000261096
0.00227941
0.00372002
0.00103265
0.003128
0.00292362
0.0013474
0.00349539
0.00346243
0.000537232
0.00287056
0.00310342
0.00193922
0.000468576
0.000880972
0.00181288
0.00162287
0.00313199
0.000906274
0.00214491
0.0015607
0.00036713
0.0041489
0.000250945
0.00454406
0.00336253
0.000645619
0.00298128
0.000104647
2.93959e-05
0.00526946
0.00114351
0.00287052
0.00139596
0.000672572
0.00168708
0.000346483
0.00260032
0.00263629
0.00157387
0.00452412
0.00510946
0.00112877
0.000554107
0.004924
0.00192921
0.00272213
0.00371023
0.00122923
0.000945588
0.0050919
0.00203328
0.00172496
0.000550104
0.000635589
0.000689415
0.00327386
0.00338101
1.07347e-05
0.00289196
0.00104905
0.00322965
0.00114258
0.00199944
0.00712842
0.00152332
0.00141005
0.00429074
0.00278581
0.00237552
0.00221813
0.000403248
0.00524807
3.04818e-05
0.00757827
0.000790997
0.00214607
0.00449868
0.00162699
0.000988431
0.00245544
0.000374818
0.00871343
0.00264498
0.00192597
0.00122823
0.00261462
0.00155303
0.00372583
0.00150042
0.00358824
0.00203775
0.00456076
0.000375753
0.000548531
0.00314938
0.00366337
0.00426855
0.000753042
0.000728764
0.000233439
0.00119991
0.0049167
0.000244841
0.00120819
0.000609306
0.00107567
0.00137508
0.00375506
0.00136819
0.00118052
0.000439543
0.000935064
0.0014482
0.000498831
0.000785663
0.00078773
0.0028691
0.000332178
0.00138348
0.000185497
0.00487506
0.00509072
0.000931571
0.000662073
0.00103733
0.000110466
0.00698323
0.00491109
0.000449524
0.00109293
0.00309351
0.0014404
0.00116642
0.00289138
0.0016955
0.00222421
0.000779299
0.00176729
0.00251251
0.00312081
0.00757105
0.00285507
0.00330888
0.00213371
0.00223709
0.000411906
8.06427e-05
0.000361173
0.00166271
0.00136182
0.00393847
0.00351202
0.00329297
0.00145876
0.000208007
0.00294826
0.00460232
0.000872835
0.00662678
0.00194603
0.00168723
0.00584618
0.00110342
0.00790617
0.00196854
0.00327142
0.00137049
0.000780592
0.000965315
0.00108165
0.0022704
0.00399368
0.00178307
0.000542319
0.00208302
0.003455
0.00249388
0.00232858
0.00559398
0.00209687
0.00498306
0.00111763
0.00352119
0.00150336
0.00182712
0.00256563
0.00452451
0.00103525
0.00121003
0.00241302
0.00021598
0.00104874
0.00424888
0.00294543
0.00299889
0.00489723
0.00193685
0.000553516
0.00194554
0.00146629
0.00513507
0.00152642
0.00516489
0.00284174
0.00373736
0.00779753
0.00616726
0.00069146
0.00423797
0.00246602
0.00249502
0.00188986
0.00185327
0.00128502
0.00135855
0.0018388
0.0020288
0.00358602
0.00215181
0.00227784
0.00443297
0.000940848
0.000393758
0.00114707
0.00254974
0.00110136
0.00163681
0.00159341
0.00282833
0.00170226
0.0031145
0.00511494
0.00106876
0.00213418
0.0066055
0.00144264
0.00120296
0.00114444
0.00299503
4.57537e-05
0.00153924
0.00722056
0.00576704
0.00384961
0.000613669
0.00333659
0.000354998
0.00418327
0.000519435
0.00118219
0.000617321
0.00140863
0.00136514
0.00331462
0.00101995
0.00085706
0.000627615
0.00456062
0.00547945
0.0017289
0.00421101
0.00655027
0.0103867
0.00109031
0.00252879
8.60036e-05
0.00171629
0.00208222
0.0030091
0.00239761
0.00279161
0.0016723
0.00173599
0.00258529
0.000124447
0.00446263
0.000788842
0.0026327
0.00326518
0.00382815
0.00371646
0.00355628
0.00742484
0.000828024
0.00330007
0.00125863
0.00089823
0.00118209
0.000598254
0.00322635
0.00230564
0.00169813
0.000827382
0.00119957
0.0014545
0.00136229
0.00308006
6.18503e-05
0.000444896
1.18164e-05
0.00319397
0.00146692
0.00255127
9.45734e-05
3.68939e-05
0.00266231
0.00289465
0.00404057
0.00131052
0.00145708
0.00187793
0.00269116
0.00242041
0.00168099
0.00195048
0.00178337
0.00305197
0.00454598
0.00137719
0.00285484
0.00249127
0.00416882
0.00314043
0.000686526
0.00241043
0.00189358
0.00303154
0.000813153
0.00350329
0.000807053
0.00490544
0.000821587
0.000851323
0.00085299
0.00301174
0.00306397
0.000129269
0.00286472
0.00404237
0.00151215
0.00296667
0.00555052
8.22502e-05
0.000404334
0.00263957
0.0041727
0.000296641
0.00041126
0.00027234
0.000801068
0.000993111
0.00455347
0.00206707
0.00244315
0.00116278
0.000501521
0.00130906
0.00143995
0.00236162
0.00249244
0.0039555
0.00030054
0.000849194
0.00372353
0.000101432
0.000990999
0.00277203
0.000204863
0.00247174
0.0015547
0.00157512
0.00241472
0.00303735
0.000386041
0.000708768
0.00552883
1.20515e-05
0.00405719
0.000583463
0.00303039
0.0031705
0.00372748
0.00779329
0.0039844
0.00219284
0.00643202
0.000435695
0.000616175
0.00256362
0.00290906
0.00242569
0.00684859
0.00212973
0.00182088
0.00270286
0.00271428
0.0012024
0.00215805
0.0019224
0.000600621
0.000244605
0.0110703
0.00382894
0.00071492
0.00284986
0.0024043
0.00243489
0.00021675
0.00170844
0.00176714
0.000442299
0.00137768
0.00143968
0.00224439
0.00208501
0.00263538
0.000675329
0.0021052
0.00469016
0.00397281
0.00965469
0.00132085
0.00105188
0.00444359
0.000645576
0.000586332
0.000783523
0.00104156
0.000629032
0.00446477
0.000149454
0.000275241
0.00364325
0.000174596
0.00257504
0.00110848
0.000296224
0.000125125
0.000243386
0.0001556
0.00662636
0.00551574
0.00104937
0.000148336
0.000773908
0.00100053
0.00355521
0.00112722
0.00449587
0.000584579
0.0051622
0.00481689
0.000542718
0.000943636
0.00337053
0.00527915
0.000917853
0.000619582
0.000768274
0.00257361
0.0046775
0.00501825
0.00177906
0.00208918
0.00368187
0.0029582
0.000176272
0.00258127
0.000537997
0.00397202
0.00339519
0.005064
0.00162116
0.00244354
0.000907293
0.00280654
0.00436539
0.00525974
0.0010936
0.00268641
0.00396794
0.00548268
0.00417385
5.73948e-05
0.000821311
0.00324099
0.00267196
0.000153325
0.00031395
0.00145769
0.000797533
0.000248083
0.00088294
0.00428823
0.00322866
0.000851076
0.00271412
0.000462508
0.00235841
0.00249301
0.00733492
0.00205592
0.00333404
0.00453845
0.00568005
0.00309605
0.000613271
0.00258526
0.00172861
0.000974199
0.00213622
0.00135375
0.00215333
0.00123567
0.00281442
0.00274319
0.0012811
0.004369
0.00154577
0.00761996
0.000143878
0.00500117
5.78045e-05
0.00132609
0.00104999
0.00418241
0.00555798
0.00185076
0.00260717
0.0031388
0.00164057
0.00467208
0.00541351
0.00175796
0.00343607
0.000843909
0.00137261
0.00680156
0.000119969
0.000536865
0.000462205
0.00153177
0.00145568
0.00252293
0.00225307
0.00760318
0.00104935
0.00480272
0.00178092
0.000614402
0.00410434
0.00165878
0.00107372
0.000440288
0.00188734
0.000691467
3.76484e-05
0.00415095
0.00188892
0.00260222
0.000819526
0.00445605
0.00645643
0.00212991
0.00450347
0.00194582
0.00198266
0.00229429
0.00469657
0.00341916
0.00428196
0.00368807
0.00547933
0.0025255
0.00353697
0.00268973
0.00350028
0.00205993
0.00367893
0.00387356
0.00628854
0.00772255
0.00454137
0.00245941
0.00414956
0.00383781
0.00068992
0.00664416
0.00122815
0.000651095
0.000217415
0.00208583
0.00236981
0.00113522
0.00139105
0.00260195
0.00279546
0.00174489
0.00872848
0.000695226
0.00588869
0.00543795
0.00303647
0.000533828
5.16636e-05
0.00062912
0.00107606
0.0018932
0.0028482
0.00225161
0.000322836
0.000409416
0.00249039
0.00287832
0.00318819
0.00124883
0.000263353
0.00356941
0.00160422
0.000273954
0.0063304
0.00262727
0.0076296
0.000831301
0.00537838
0.000601789
0.0018763
0.00165297
0.00165986
0.00154065
0.00529652
0.00471129
0.00158916
0.00277233
0.00152486
0.00148018
0.00142174
0.00214222
0.00192175
0.0032157
0.00783794
0.0019215
0.00192836
0.00129846
0.00183375
0.000486325
0.00354163
0.00374337
0.00272959
0.00423443
5.17302e-05
0.000912278
0.00341986
0.000767265
0.00205716
0.00161617
0.00393509
0.00137241
0.00193487
0.000468043
0.00149259
0.00113646
0.00207554
0.00548251
0.00153544
0.00054791
0.00374378
0.000137961
0.00260699
0.00111368
0.00191212
0.0027419
0.00367341
0.00251398
0.00273385
0.00270154
0.000214763
0.00408556
0.00102604
0.000766707
0.00509538
0.00588672
0.000164595
0.000699209
0.00080815
0.000208983
0.000443538
0.000748084
0.00116403
0.000174009
0.00350031
0.00397861
0.00223707
0.00160873
0.00151009
0.00230834
0.00488718
0.00454054
0.00359488
0.000268689
0.000282921
0.00271313
0.00281913
0.00155798
0.00592027
0.00451237
0.00182546
0.00450406
0.00231812
0.00605453
0.00295999
0.000564355
0.00376557
0.00413332
0.00413071
0.00248811
0.00343905
0.00242204
0.00156526
0.00365423
0.000634421
0.00894414
0.00791069
0.00353611
0.00287768
0.000825429
0.00242001
0.00157368
0.00762157
0.0012726
0.00620051
0.0062756
0.00178238
0.00420287
0.000922267
0.00225926
0.00351344
0.00435089
0.000886366
0.00828816
0.00492295
0.00867342
0.00174413
0.000927173
0.000477266
0.00139731
0.000562099
0.00260136
0.000562364
0.00132054
0.000170311
0.00214913
0.00319106
0.000409478
1.91424e-05
0.00142283
0.00428837
0.000107751
0.00479348
0.000533372
0.00816274
0.00193322
0.00426097
0.0033232
0.0012906
0.0015205
0.000669814
0.00195582
0.00148745
0.000889331
0.00460997
0.0044705
0.00110291
0.00365353
0.00441917
0.00251792
0.000861364
0.000216351
0.0010878
0.00601449
0.00474327
0.00285704
0.000800524
0.00156275
0.00225278
0.00455649
0.00149401
0.0053729
0.000368243
0.00191839
0.00433599
0.00176916
0.00568351
0.00154557
0.00138098
0.000980083
0.00052581
6.7846e-05
0.000121199
0.00302752
0.00429888
0.00317767
0.000645592
0.000503616
0.00144276
0.00231089
0.000493769
0.00344756
0.00190493
0.00225462
0.00172645
0.000311399
0.000383036
0.00181984
0.00158812
0.00182189
0.00148649
0.00226261
0.00198922
0.00100819
0.00275915
0.00166409
0.00301911
0.00287342
0.00475052
0.000473826
0.00200991
0.0004112
0.00052888
0.00418663
0.00205551
0.00621395
0.00145064
0.00130094
0.000822551
0.00320142
0.0020758
0.00447888
0.000412806
0.000708276
0.00116675
0.00401078
0.0064817
0.00320011
0.00174059
0.00126783
0.00311872
0.0036138
0.00538965
0.00457925
0.00171969
0.00422762
0.000107221
0.00358291
0.00762462
0.00293238
0.00162734
0.00192791
0.00155426
0.00388758
0.000189487
0.00642822
0.00230119
0.00249662
0.00427122
0.00361864
0.00496848
0.00170225
0.00276509
0.00363141
0.000964995
0.00117848
0.000988343
0.00419993
0.00591935
0.000985462
0.00180568
0.000290229
0.00282816
0.00175136
0.000156625
0.00408685
0.00762561
0.00272971
0.000917479
9.35717e-05
0.00139808
0.00252608
0.0051689
0.00166696
0.00211827
0.00358218
0.00364438
0.00123061
0.00465759
0.00570361
0.000361207
0.00361486
0.00299076
0.00453528
0.00590983
0.00279317
0.000706179
0.00471299
0.00152192
0.00206575
3.26822e-05
0.00147916
5.66523e-05
0.000633225
0.000523892
0.000131875
0.00535036
0.000238771
0.00179422
0.00042145
0.00231933
0.000244867
0.0052837
0.000400817
0.00392019
0.00879209
0.0024301
0.000398897
0.00315046
0.00284127
0.000828337
0.00445498
0.00235442
0.00496492
0.0034636
0.000633356
0.00219448
0.00411579
0.00123525
0.00305573
0.00301975
0.00369033
0.000540564
0.00476808
0.00917447
0.00194824
0.00490117
0.00564853
0.000572652
0.00453176
0.00435779
0.000869308
0.000124088
0.00131989
0.00110931
0.00561006
0.00284029
0.00367775
0.00194061
0.000466498
0.0018085
0.00155888
0.00298047
0.0012718
0.00458854
0.00278259
0.002711
8.25044e-05
0.00027208
0.00259757
0.00497035
0.00301256
0.00239152
0.00237982
0.00430979
0.00309662
0.00178466
0.00407634
2.39916e-07
0.000411506
1.02669e-05
0.00294085
0.00375079
0.00332088
0.00802442
0.00634161
0.00362583
0.00342308
0.00298864
0.000928223
0.00132705
0.00360746
0.00226156
0.000966564
0.00141875
0.00140075
0.00458664
0.000863933
0.000652136
0.00350215
0.00229857
0.0004318
0.000414547
0.00119639
0.00048342
0.00288494
0.00278776
0.0014383
0.00050903
0.00176716
0.00559315
0.0026987
0.00290632
0.00144661
0.00316137
0.00328632
0.00587304
0.00402754
0.00169717
0.00183728
0.00183236
0.00176469
0.00199325
0.00300672
0.00206051
0.00171963
0.00439053
0.00398739
0.00240743
0.00110906
0.00367584
0.00231885
0.00541703
0.000194566
0.00367084
0.00332733
0.00235615
0.00141063
0.00361238
0.00437719
0.000361797
0.00147762
0.000343238
0.00138407
0.00120703
0.00984884
0.0082194
0.00282692
0.00559013
0.00599577
0.00307272
0.00199136
0.00176295
0.00251802
0.00551121
0.00350624
0.00309801
0.00400031
0.0057977
0.00538701
0.000199244
0.00322624
0.00337683
0.00842754
0.0091352
0.00790766
0.00577035
0.00372222
0.000170679
0.00185367
0.00352653
0.00226614
0.00280682
0.0062166
0.00188682
0.00608097
0.00505488
0.000445438
0.00317736
0.00643042
0.0016896
0.00261683
0.00591639
0.00240487
0.00442558
0.00929794
0.00276467
0.000639164
0.00162379
0.00211931
0.00123954
0.000615633
0.000767328
0.00329166
0.000264578
0.00230084
0.00322797
0.00282164
0.000732974
0.000739779
0.00160456
0.00224185
0.00320058
0.00165653
0.00612944
0.00555402
0.00406622
0.00251686
0.00183935
0.00267931
0.000842502
0.00345089
0.00206309
0.00246218
0.00463396
0.000838189
0.000232601
0.00149329
0.00448088
0.00133693
0.00194015
0.0065782
0.00131766
0.00137827
0.00178123
0.0100982
0.00167956
0.00336489
0.00221178
0.00303116
5.00756e-05
0.00301599
0.00237462
0.000608778
0.00105688
0.000530166
0.0018028
0.00216074
0.00237659
0.000612196
0.00316825
0.0012475
0.00197973
0.00250971
0.00432126
0.00534832
0.000714883
0.00276151
0.0019309
0.00358797
0.00395898
0.00640505
0.00324129
0.00065776
0.00201844
0.000241921
0.00768507
0.00236902
0.00459141
0.000759224
0.00247127
0.00142496
0.00214835
0.00217446
0.00190625
0.0034501
0.00265326
0.00209942
0.00619891
0.00167089
0.00101057
0.00145355
0.00199245
0.000177472
0.000937669
0.000802982
0.000804637
0.00126927
0.00113349
0.0055169
0.00131749
0.000467471
0.000417634
0.00506742
0.0024486
0.00057467
0.00258254
0.00288663
0.000777513
0.00386265
0.00149842
0.00280816
0.00421432
0.00181339
0.00321875
0.00227093
0.000285351
0.00180956
0.00262093
0.00267052
5.33309e-05
0.00107299
0.00211085
0.00146353
0.00140055
0.0101587
0.00341278
0.00599879
0.00498366
0.00234521
0.0034889
0.000886486
0.00038383
0.00561378
0.000953694
0.00574807
0.00109196
0.00173312
0.00460797
0.00460333
0.00190129
0.000359805
0.000464198
0.00269351
0.00736852
0.00711445
0.00143689
0.0026142
0.00159285
0.000942202
0.000572475
0.00216892
0.000129958
0.00179237
0.000285399
0.000790638
0.00195383
3.79702e-05
0.00017146
0.000344404
0.00120577
0.00031369
0.0040487
0.000362891
0.000614943
0.0115714
0.00594166
0.00393164
0.00286994
0.00149153
0.00035517
0.000501746
0.00187941
0.00157411
0.00103165
0.00327969
0.00240042
0.000610961
0.00287362
1.55644e-05
0.000206055
0.00107011
0.00215042
0.00330443
0.00415928
0.00798644
0.000623464
0.00288646
0.000781531
0.00240628
0.00472055
0.00490803
0.000394032
0.000577721
0.00312902
0.00137567
0.0035278
0.00610727
0.00374235
0.00305767
0.00401436
0.00282789
0.0012612
0.00578602
0.000230726
0.00540075
0.00543752
0.00100623
0.0017385
0.0005371
0.000705817
0.00124275
0.000932503
0.000905334
0.00566296
0.0030288
0.000976437
0.00457345
0.000942518
0.000123189
0.000892211
0.00135815
0.0037716
0.00255382
0.000152105
0.000168007
0.00280154
0.00573908
0.00453346
0.000867616
0.00204153
0.00136877
0.000412011
0.00557829
0.00162646
0.000317043
0.00663431
0.000915228
0.00583617
0.00498725
0.000133846
0.00717407
0.00122074
0.00220249
0.00269902
0.00361461
0.00042784
0.00114697
0.00309236
0.000333886
0.000552618
8.96131e-05
0.00454099
0.00371806
0.00037707
0.00251824
0.000196376
0.00064205
0.00127525
0.00373263
0.00144189
0.00128396
0.000210892
0.00172009
0.000739091
0.00263194
0.000329792
0.0003949
0.000106676
0.00257657
0.00296105
0.00313667
0.00269184
0.00133873
0.000902557
0.00312841
0.00163076
0.00420319
0.000320805
0.0017911
0.00585306
0.00140371
7.54591e-05
0.000531494
0.00468025
0.00755612
0.00694056
0.000544154
0.00296411
0.00237394
0.000458007
0.00406234
0.00129134
0.000193522
0.000741773
0.00310788
0.000755391
0.00121488
0.00393991
0.00509585
0.000309195
0.000123062
0.00164248
0.00519435
0.00647849
0.00756836
0.00527104
0.00313576
0.00689011
0.000525591
0.00348953
0.00226237
0.00224288
0.00303157
0.00244529
0.000437449
0.00456995
0.00229288
0.00276676
0.000735547
0.00203946
0.00238133
0.000605035
0.00150075
0.00838047
0.00323
0.0050101
0.00726112
0.00199004
0.0031674
0.00298543
0.00171558
0.00458919
0.00585205
0.00396182
0.00179127
0.000279876
0.000738183
0.00377512
0.00463921
0.000662945
0.0017267
7.95353e-05
0.00145462
0.00356498
0.00312426
0.00480331
0.00365974
0.00325404
0.00109566
0.00234828
0.0019445
0.00103327
0.000685622
0.00209107
0.00439396
0.00302527
0.00066248
0.00119903
0.00402326
0.00358118
0.002745
0.00126004
0.00223317
0.000788949
0.00245554
0.00208305
0.00507049
0.00428626
0.00276492
0.00604105
0.000889512
0.00379884
0.00144125
0.00496566
0.00263301
0.00323085
0.00103631
0.00108226
0.00166067
0.00194334
0.00411674
0.000897029
0.00362034
0.00457816
0.00110257
0.00129155
0.000977047
0.00427066
0.00163016
0.00214155
0.000550405
0.00243212
0.000891889
0.00651791
0.00133248
0.00190449
0.000899724
0.00234034
0.00396955
0.000256969
0.00363369
0.00269728
7.28431e-05
0.00290428
0.00216456
0.00249471
0.000421821
0.00296763
0.00552081
0.00136709
0.00186285
0.000121967
0.000532054
0.00444277
0.00615374
0.00140607
0.00314086
0.00144586
0.000845638
0.00213818
0.0031984
0.00105852
0.00654481
0.00271163
0.000386049
0.000665711
0.00284859
0.0010865
0.00115429
0.0024754
0.00266132
0.00377427
0.000165338
0.000529573
0.00282212
0.000293492
0.000685314
0.00293684
0.00216624
0.00182089
0.00176372
0.00279942
0.00409771
0.00113976
0.00823569
0.00488485
0.00267694
0.0012342
2.21569e-06
0.00109394
0.00244703
0.00192991
0.00228849
0.002018
0.00406176
0.00304731
0.00361007
0.00158858
0.00222384
0.00359869
0.00191574
0.00315404
0.00595705
0.00601229
0.0069386
0.000928464
0.00402699
0.000150698
0.000564683
0.000534068
0.000519688
0.000119505
0.000914271
0.00123447
0.000222944
0.00204674
0.000136961
0.00387103
0.00130992
0.00271095
0.000914311
0.000723477
0.000948037
0.00405662
0.00614478
0.00244337
0.00193634
0.000662683
0.00145216
0.000113926
0.00259281
0.00254361
0.000353253
0.00665795
0.00396525
0.00230441
0.000488183
0.00346269
0.000738597
0.00451388
0.000950569
0.0002861
0.00147205
0.00224612
0.00369471
2.01343e-06
0.000531061
0.00121481
0.000325068
0.0021959
0.00109415
0.0014621
0.0013775
0.000180762
0.00104351
0.00362034
0.0020648
0.00111047
0.00391179
0.00355702
0.0026302
0.000127584
0.00200738
0.00456557
0.00301029
0.0022812
0.000143885
0.001784
0.00072272
0.00294713
0.0042347
0.000947071
0.00166328
0.000348626
0.00015704
0.000506087
0.0011561
0.00366972
0.0032892
0.000536536
0.000477641
0.00327998
0.0032034
0.00290332
0.00444106
0.00120535
0.00161239
0.00017464
0.00419817
0.00145457
0.000866222
6.87037e-05
0.00132005
0.00380468
0.00382154
0.00480101
0.00138391
0.00265999
0.00191896
0.00015037
0.00316954
8.93578e-07
0.00188395
0.000484014
0.000175031
0.00442153
0.00333043
0.00138633
0.00320063
0.00195109
0.000327423
0.00219986
0.00160149
0.00110232
0.000955596
0.000628007
0.00135625
0.00130755
0.000768512
0.00239596
0.00114026
0.000264533
0.00106606
0.0023746
0.00330595
0.000513568
0.00184496
0.00516348
0.000760515
0.000255891
0.000328016
0.00246715
0.000213161
0.000591389
0.00102311
0.000298653
0.00281861
0.000667828
0.00194714
0.000923856
0.00339061
0.00305496
0.000701598
3.45652e-05
0.00100056
0.00151401
0.00565877
0.00519389
0.000491709
0.00175701
0.000425878
0.00228143
0.00373388
0.000428955
0.00148096
0.00193325
0.00505562
0.0027984
0.00198576
0.00386148
0.000453474
0.00881519
0.000851327
0.00637788
0.00259171
0.00162371
0.00455262
0.00235718
0.00173605
0.000696903
0.000773848
0.00255288
0.00293528
0.00649882
0.00132966
0.000198913
0.00401492
0.00275133
0.00318136
0.000847377
0.00103086
0.000808279
0.000421767
0.000783171
0.00304263
0.000435534
0.000628455
0.000452478
0.0013166
0.00250647
0.00116341
0.00053618
0.00300117
0.000787456
0.00338264
0.00302324
0.000168944
0.000998357
0.000841644
0.000120395
0.00809407
0.0017868
0.00260388
0.000945193
0.00127719
0.00497
0.0038329
0.00772734
0.000874797
0.00474438
0.0039854
0.00322267
0.00139969
0.000611601
0.00321058
0.00118469
0.00175007
0.000972254
0.00180141
0.00151061
0.00425191
0.000220686
0.00382025
0.000225953
0.00102185
0.00129627
0.00266805
0.00108465
0.0013309
0.00318065
0.000173311
0.00246333
0.00310518
0.000854173
0.00346935
0.00777944
0.00279114
0.00317677
0.00248523
0.00197975
0.00120972
0.00180427
0.00215885
0.000183636
0.00450214
0.000202883
0.00315447
0.000818126
0.00181422
0.000665505
0.00139119
0.000744697
0.000133537
0.00012693
0.0017601
0.00604968
7.68064e-05
0.00378536
0.00383686
0.000756213
0.00147277
0.000841889
0.00230215
0.00258049
0.0087019
0.00483842
0.00115649
0.00134711
0.00200728
0.00198766
0.000625352
0.00512825
0.00444381
0.000845263
0.000290755
0.00496013
0.000546576
0.000944451
0.00194308
0.00194518
0.000604389
0.00474578
0.00194136
0.000950224
0.00447232
0.00271467
0.00349409
0.00327441
0.000439194
0.00406807
0.00349651
0.00384761
0.00175511
0.000887821
0.00155056
0.00221056
0.00102265
0.00324526
0.000451577
0.0021438
0.00144721
0.00244352
0.00039056
2.96129e-05
0.00474415
0.000433493
0.000792747
0.00359526
0.00596857
0.0018531
0.00140844
0.00507802
0.0059332
0.0071684
7.40572e-05
0.00541588
0.00347686
0.00279675
0.00728448
0.00399977
0.00222741
0.00676124
0.00366579
0.00171743
0.00524269
0.000654228
0.00023097
0.00111779
0.00119946
0.000591477
0.000810778
0.00173401
0.0053146
0.000209487
0.000545214
0.000629615
0.000777206
0.00336036
0.000810338
0.000236265
0.000209508
0.000887505
0.000639495
0.00430831
0.00917163
0.00312991
0.00425398
0.00133728