/*--------------------------------*- C++ -*----------------------------------*\
| =========                 |                                                 |
| \\      /  F ield         | OpenFOAM: The Open Source CFD Toolbox           |
|  \\    /   O peration     | Version:  2212                                  |
|   \\  /    A nd           | Website:  www.openfoam.com                      |
|    \\/     M anipulation  |                                                 |
\*---------------------------------------------------------------------------*/
FoamFile
{
    version     2.0;
    format      ascii;
    arch        "LSB;label=32;scalar=64";
    class       volScalarField;
    location    "0";
    object      stateMean;
}
// * * * * * * * * * * * * * * * * * * * * * * * * * * * * * * * * * * * * * //

dimensions      [0 0 0 1 0 0 0];

internalField   nonuniform List<scalar> 
3200
(
324.746
323.986
323.757
323.738
323.33
324.794
324.524
324.716
324.023
324.533
323.932
325.715
324.651
324.261
324.168
322.955
322.729
323.644
324.299
324.958
320.039
321.893
322.045
319.618
320.63
319.868
320.47
322.211
322.743
320.289
321.177
320.551
321.622
322.647
318.595
319.847
320.886
320.007
320.649
320.216
316.141
317.533
317.712
317.146
317.186
315.317
317.998
318.978
317.889
317.377
318.196
317.377
316.205
316.218
315.972
316.918
317.731
317.544
317.812
317.571
315.429
313.445
313.905
313.721
312.588
314.724
315.354
315.408
315.782
314.686
315.382
316.271
314.659
314.032
314.279
313.83
313.145
313.9
314.645
315.112
309.584
311.519
310.32
310.116
310.841
311.782
309.806
311.213
311.086
312.193
310.959
312.701
311.644
310.463
310.563
310.658
310.257
310.17
310.143
311.164
307.844
307.435
308.255
308.507
307.673
307.586
307.636
308.281
308.837
307.314
307.559
308.782
309.526
307.955
307.686
309.392
308.07
306.642
307.594
306.986
303.81
305.939
305.422
304.286
305.683
306.285
303.588
302.947
303.713
305.684
305.379
304.932
304.46
304.089
303.646
304.025
303.493
304.427
304.568
304.98
300.971
301.744
303.076
301.432
300.18
301.192
301.349
302.551
300.36
302.13
301.002
301.992
302.791
302.293
301.305
300.397
302.018
303.462
301.71
301.121
323.908
324.378
323.633
322.988
324.532
324.461
324.42
325.538
324.656
325.628
325.242
324.751
324.949
323.941
323.262
323.816
325.015
323.816
324.917
324.954
320.399
320.383
320.46
320.671
320.631
321.362
321.173
322.317
322.2
322.594
322.818
321.081
322.492
319.997
321.946
320.692
321.084
319.252
320.48
319.993
316.299
316.14
318.572
317.487
317.21
316.48
317.058
317.703
316.726
317.659
319.121
318.112
317.633
317.346
317.608
317.062
316.263
317.941
316.761
318.241
314.662
312.254
314.191
312.892
314.887
313.685
314.21
315.113
314.587
316.641
314.874
314.254
314.958
314.446
314.081
315.043
314.491
315.418
314.536
313.591
312.969
310.98
309.711
309.092
312.526
311.183
311.81
312.249
311.843
311.077
311.862
310.105
310.824
311
311.483
309.633
311.714
311.077
310.455
311.71
306.406
306.969
307.233
308.531
308.686
306.466
307.649
308.546
309.67
308.748
307.043
309.488
307.817
305.259
308.415
306.631
308.607
307.951
308.776
308.448
304.79
304.363
305.519
305.106
304.424
303.591
305.389
304.057
305.903
305.115
304.895
304.961
304.033
305.982
305.64
305.592
304.21
304.258
304.202
304.365
300.898
300.715
300.712
302.135
302.645
301.797
301.903
300.771
302.166
300.835
302.176
302.339
301.039
302.144
301.19
300.339
299.938
300.79
301.47
301.48
325.499
324.761
325.164
324.287
323.024
324.142
324.714
323.889
324.284
325.818
326.622
326.96
323.99
324.994
324.704
323.786
323.02
324.275
323.632
323.641
321.156
319.984
319.88
320.728
319.9
321.466
321.567
322.295
320.997
320.223
321.648
322.977
322.111
321.492
319.441
320.653
320.001
320.412
321.454
321.356
318.355
317.185
317.394
316.768
318.055
318.728
316.371
318.376
317.791
318.033
318.437
319.037
318.25
320.19
318.613
317.685
317.655
317.664
315.952
318.238
314.883
314.43
313.833
314.338
313.816
315.635
313.276
315.643
314.435
313.445
313.755
313.828
314.79
315.106
314.17
314.996
314.605
314.442
315.337
313.504
310.238
310.865
312.26
310.715
311.17
310.551
311.79
310.763
312.37
311.734
311.433
312.311
311.829
311.044
311.38
311.718
310.028
312.122
309.915
310.892
307.93
308.61
305.857
307.708
307.351
308.385
307.386
308.947
307.968
309.252
307.421
309.436
306.806
307.042
308.172
307.693
308.036
307.961
308.467
308.805
305.706
304.493
302.763
306.166
305.731
304.806
305.928
304.969
304.248
304.702
306.664
304.735
306.706
304.084
305.151
305.605
303.182
304.565
304.371
304.016
301.495
302.547
301.788
301.604
302.406
302.121
301.175
301.239
301.095
299.836
300.854
302.238
302.71
300.156
301.103
301.595
301.218
301.85
302.176
301.53
324.645
323.385
324.096
325.199
323.488
324.533
325.34
324.125
325.191
324.441
325.076
325.989
327.087
325.276
324.07
324.996
324.236
324.201
324.384
324.344
321.465
320.177
322.117
320.931
321.489
321.711
321.235
322.336
321.303
322.899
322.433
320.677
322.423
321.461
321.427
321.737
320.845
318.905
320.352
322.403
319.099
317.88
317.982
316.674
319.206
317.243
317.554
318.175
317.381
318.244
318.62
319.037
318.009
317.605
318.249
318.549
317.906
316.294
317.641
318.586
313.253
314.399
314.874
313.506
313.99
314.182
315.85
315.28
315.188
315.715
315.722
315.839
313.59
314.859
314.526
314.514
312.273
314.118
314.67
313.809
311.724
311.105
310.711
310.519
311.472
310.68
312.029
311.742
312.518
312.272
313.063
310.918
312.205
312.479
311.57
309.509
309.547
309.778
310.974
311.1
309.251
307.716
307.522
307.655
307.253
307.702
309.436
308.076
308.387
308.043
309.08
308.683
308.443
308.723
307.487
309.666
307.132
307.904
308.287
308.248
304.667
304.916
304.913
305.065
304.357
305.615
304.771
303.112
303.728
306.491
305.608
305.954
305.649
305.211
306.586
305.098
304.692
304.837
304.463
305.235
301.278
299.187
302.413
300.296
300.45
302.228
300.304
301.175
300.909
303.012
300.968
300.614
301.391
301.776
302.553
301.422
301.225
300.752
300.541
300.507
324.938
324.248
325.342
326.025
322.098
324.546
324.805
325.546
326.011
325.33
327.542
326.458
326.169
326.328
324.33
325.161
324.028
324.372
324.267
323.986
322.543
322.187
322.182
319.762
321.784
322.029
322.95
322.302
320.291
321.687
322.393
323.524
320.518
322.385
321.747
321.983
320.622
321.333
321.786
323.088
319.049
318.781
317.959
318.457
317.027
317.919
318.051
317.444
318.68
320.801
319.373
319.776
318.66
319.159
319.148
317.786
316.914
318.511
317.286
318.981
313.527
314.099
315.326
312.161
313.549
315.028
315.906
316.348
314.628
315.072
316.034
315.185
314.048
315.412
315.447
315.842
313.847
313.696
314.18
314.807
312.1
310.753
312.225
310.533
311.221
310.744
313.09
312.325
311.367
311.35
312.925
312.409
312.432
312.576
311.328
312.617
311.726
310.583
310.589
311.057
309.086
307.979
306.628
307.13
308.506
307.525
308.602
308.666
310.378
309.145
307.906
308.32
308.883
308.049
308.338
309.109
308.978
308.513
309.295
309.382
305.031
304.573
306.319
304.313
305.815
303.936
304.768
304.917
306.806
304.655
304.749
305.42
305.4
305.353
306.067
303.954
304.904
305.7
305.062
305.671
301.915
302.192
299.464
302.101
301.245
300.403
300.882
301.027
301.091
301.646
300.184
301.751
304.031
301.962
301.051
300.313
301.151
301.912
300.848
301.683
326.873
325.198
325.334
325.505
326.362
326.41
325.047
326.072
325.606
326.227
325.402
326.902
326.741
325.235
324.71
324.122
325.351
324.946
324.416
324.438
322.354
321.102
321.729
321.49
322.382
321.933
321.474
323.388
323.514
323.09
322.93
322.665
323.107
322.432
322.122
322.96
321.579
321.786
321.083
322.341
319.15
318.034
318.218
317.967
318.559
316.654
317.576
319.218
319.171
320.593
320.064
319.893
318.439
319.684
319.59
318.842
317.734
318.806
318.73
319.938
315.212
313.439
314.028
314.231
315.049
315.439
315.514
315.282
315.506
314.759
314.894
316.976
316.268
315.694
314.484
316.63
314.661
312.614
315.092
314.845
312.936
311.586
313.875
310.985
310.766
311.541
311.891
312.575
312.037
311.718
313.675
312.932
312.105
312.785
310.891
312.564
312.324
309.671
310.59
312.667
307.59
309.108
308.607
308.839
307.619
307.145
308.34
309.133
308.086
308.801
308.544
310.143
307.85
307.734
307.03
309.007
308.447
308.744
307.571
309.515
304.296
306.389
304.021
303.826
307.426
303.243
304.986
303.962
306.052
304.56
304.745
304.733
305.648
305.612
304.564
304.428
303.872
304.231
305.509
306.112
301.879
301.732
301.983
300.895
301.359
301.223
302.222
300.908
302.29
300.843
303.327
302.099
301.117
299.748
301.282
302.054
301.319
302.54
301.599
301.131
326.852
326.661
326.391
325.716
324.812
326.153
325.239
326.715
326.7
327.395
326.732
327.534
327.968
326.938
326.549
325.694
327.001
326.921
325.35
325.876
323.277
324.747
322.063
322.853
322.398
323.244
323.654
324.196
324.173
324.393
322.949
322.837
322.387
323.021
324.13
322.116
322.887
322.762
322.639
322.367
318.997
320.425
318.583
319.646
319.276
318.858
319.769
319.787
318.712
319.084
320.364
320.009
319.213
318.926
319.58
319.857
318.575
318.461
318.067
318.882
315.048
315.548
314.983
315.191
314.568
314.715
314.554
316.411
316.579
315.587
317.032
316.883
316.528
315.214
316.192
316.371
316.612
315.387
315.644
315.371
312.625
312.426
311.396
312.537
312.554
311.189
312.038
313.517
312.263
314.098
312.822
312.781
312.156
313.233
311.179
312.003
312.678
312.87
310.977
312.251
309.794
308.194
308.159
309.224
307.25
308.568
308.898
308.948
308.684
309.273
307.559
309.57
309.619
308.412
308.815
308.941
307.966
309.012
308.937
309.303
304.943
305.161
303.835
305.078
305.425
306.043
305.201
304.564
305.835
305.862
306.118
306.287
305.437
305.48
306.884
305.127
306.285
305.149
305.826
303.884
300.501
299.291
302.868
301.029
303.657
301.872
301.578
301.008
300.918
302.535
299.736
301.153
302.332
300.948
300.922
301.353
301.04
301.086
301.823
301.699
328.649
326.561
325.881
326.933
325.577
325.913
327.091
327.839
328.045
327.709
328.015
326.995
328.015
327.702
327.569
326.142
325.318
327.175
326.607
328.189
322.064
322.202
323.582
322.25
322.58
323.321
323.002
323.359
325.17
323.761
323.898
324.904
323.507
324.172
322.71
322.865
322.498
322.072
321.913
323.77
320.015
318.112
318.734
318.701
319.53
320.599
319.332
321.32
320.205
318.438
321.632
320.192
319.58
320.77
321.149
319.504
318.75
318.442
319.266
319.749
316.487
314.495
315.912
316.628
314.747
315.832
315.259
316.4
315.084
315.326
318.002
315.828
315.457
316.362
316.775
314.303
313.807
315.598
315.902
316.157
313.283
312.991
311.861
311.752
311.163
311.501
312.53
312.7
313.145
312.983
312.656
312.965
313.943
313.491
312.602
311.328
312.152
312.578
312.467
313.86
308.894
309.369
307.05
310.322
309.644
308.992
308.108
308.459
309.356
309.747
308.669
308.39
309.375
309.776
309.65
309.083
307.221
308.927
310.691
308.304
306.482
304.987
304.666
304.822
303.937
306.979
304.78
304.6
304.475
305.954
306.88
307.087
304.859
306.394
305.024
304.795
303.067
305.034
304.841
304.816
302.123
301.238
300.938
302.403
304.041
302.087
300.342
302.345
301.636
300.588
301.326
302.145
301.941
302.361
301.979
301.758
300.471
302.269
302.462
301.908
327.126
328.029
326.933
328.042
327.541
327.874
326.763
329.291
329.044
329.418
329.223
329.72
328.58
328.672
328.105
328.049
325.898
327.438
327.187
327.723
324.665
323.852
323.452
324.287
324.477
323.736
321.612
324.368
324.329
324.125
324.871
324.886
324.338
324.213
324.355
322.332
323.511
325.474
322.612
324.074
320.445
319.856
319.285
319.375
319.403
320.182
319.443
319.312
321.07
320.312
320.284
321.147
321.146
321.069
319.439
319.688
320.499
319.627
318.975
320.73
316.103
317.822
315.864
314.103
315.811
316.786
315.843
315.984
317.099
318.341
318.156
317.114
317.386
316.848
315.725
315.552
315.124
314.995
316.43
317.746
312.46
312.571
312.518
312.841
312.576
311.466
311.536
311.964
314.223
312.955
313.224
313.968
313.058
313.35
313.078
313.653
311.839
312.717
311.823
312.326
308.815
307.9
310.335
309.228
309.034
307.814
309.024
309.953
308.859
308.642
310.081
310.339
309.924
308.222
309.806
308.931
310.015
308.96
308.777
310.036
306.875
305.175
304.973
305.5
305.256
305.519
305.669
305.133
305.576
304.472
304.325
306.206
305.98
304.98
306.089
306.812
306.639
306.283
305.043
304.993
300.883
300.866
302.208
299.973
303.144
301.253
300.464
301.139
303.678
302.749
302.026
302.987
300.591
300.576
301.053
302.82
302.491
302.21
302.82
301.511
329.302
329.202
328.066
328.162
327.26
328.618
328.606
330.81
328.881
330.582
330.607
329.048
329.688
327.787
328.566
328.681
328.644
327.2
329.325
327.99
325.587
322.422
323.538
323.352
324.227
324.212
325.103
324.266
324.154
324.598
323.955
325.619
324.581
324.253
323.569
325.163
323.471
324.787
322.813
325.422
319.842
320.751
320.665
319.417
319.57
320.488
321.094
321.103
320.455
322.279
322.234
320.386
321.797
321.883
319.467
319.781
319.761
319.255
321.311
320.739
316.595
316.079
316.493
316.897
317.813
316.074
318.408
316.719
317.538
315.604
317.539
318.731
316.346
316.269
316.237
316.205
316.206
316.037
316.782
317.05
313.177
312.489
312.578
312.115
313.433
313.001
314.05
313.668
313.851
312.641
313.084
313.265
312.502
312.474
312.277
313.175
313.273
313.042
311.972
313.046
309.209
309.699
307.976
307.498
308.923
308.546
309.128
309.164
308.084
308.77
311.329
309.828
308.926
309.509
310.157
309.711
310.35
308.735
308.548
308.335
306.441
307.239
306.295
304.848
305.055
306.454
304.45
303.95
304.228
306.171
304.353
305.661
304.502
307.884
304.605
305.939
304.791
305.793
306.447
305.275
299.808
301.068
302.535
300.513
302.915
300.343
301.347
301.04
300.79
301.6
301.535
301.588
303.143
303.648
301.546
302.368
301.714
300.929
301.234
301.701
328.513
329.893
328.563
328.257
328.272
328.97
329.583
330.65
329.64
329.862
330.344
330.29
329.355
327.222
330.385
328.36
329.142
328.649
328.881
329.11
324.374
323.427
325.417
324.633
325.057
324.632
325.31
325.02
325.33
325.357
325.144
326.864
324.924
324.247
324.484
325.139
324.219
325.602
323.526
324.738
322.612
320.733
320.281
321.372
321.483
321.036
322.377
320.336
322.79
322.362
321.452
321.9
322.414
321.343
321.75
321.54
321.545
320.326
321.481
322.734
316.778
317.836
318.234
316.8
318.227
318.334
316.821
317.255
317.719
316.992
319.124
316.399
318.383
317.712
316.805
316.218
317.113
317.39
315.884
317.613
313.418
313.491
312.743
312.987
313.848
314.718
312.33
314.115
314.178
314.817
314.437
313.991
312.089
313.274
313.29
313.038
311.982
313.942
313.681
315.056
310.912
310.141
308.052
310.13
309.588
309.802
308.355
308.837
309.285
310.048
309.175
308.164
309.27
309.269
310.475
310.012
309.34
309.238
309.391
309.102
306.254
306.264
305.906
305.68
305.041
307.344
306.508
306.612
306.193
304.799
306.771
307.547
306.954
306.202
306.197
305.021
304.985
304.858
306.331
306.002
302.319
303.139
303.035
301.124
301.535
302.998
301.204
303.552
301.868
300.824
300.927
302.638
301.491
300.813
303.209
301.761
301.405
301.935
301.396
301.436
331.288
330.959
329.443
330.617
331.013
330.299
328.85
330.266
330.642
331.696
331.035
330.834
331.004
331.416
331.061
329.106
329.84
329.623
331.027
331.054
326.792
326.273
325.827
324.794
325.678
326.436
324.741
326.548
327.769
326.416
327.782
327.391
325.489
326.513
327.381
325.624
325.699
326.54
325.181
325.663
323.418
321.468
320.971
321.481
321.833
321.731
321.295
321.871
320.658
321.681
322.506
320.679
322.532
321.729
321.095
321.667
321.68
319.739
321.113
322.403
318.441
318.085
317.745
316.523
316.413
317.144
318.638
318.304
316.943
316.292
318.031
317.799
318.123
318.965
317.835
316.647
319.192
316.529
317.234
317.246
316.111
313.566
314.21
313.972
312.451
313.501
312.673
312.957
313.57
313.46
313.626
314.327
314.38
314.364
313.325
314.394
312.888
313.776
312.254
314.303
310.895
309.525
308.532
310.073
310.673
310.87
311.701
310.781
309.615
310.466
309.766
312.2
310.511
311.139
309.879
308.797
309.034
308.721
308.631
309.83
306.599
306.393
304.99
303.79
305.226
305.478
305.386
305.257
305.838
306.192
306.151
306.138
305.478
306.178
304.1
305.334
305.542
305.504
307.131
304.797
301.685
301.09
301.016
301.67
303.088
302.391
302.801
300.692
301.426
302.95
302.664
302.06
302.511
302.744
301.133
301.938
301.581
301.25
301.428
301.435
332.367
330.339
331.424
331.334
329.156
329.002
330.059
330.386
332.483
331.002
332.588
330.988
331.086
331.874
331.674
329.303
329.81
329.601
330.102
331.449
327.375
325.69
326.275
325.116
326.149
325.849
325.5
326.306
325.861
326.591
326.24
327.084
326.36
326.264
326.148
326.235
325.737
326.742
325.105
325.262
324.857
323.183
322.708
322.545
322.277
322.075
322.269
322.831
322.815
322.019
323.409
321.534
322.028
323.033
321.956
321.731
321.278
322.135
322.336
322.477
319.788
317.559
318.415
317.397
318.553
319.424
319.603
318.263
318.023
319.238
318.68
319.33
316.195
319.232
318.895
316.512
316.747
317.899
319.197
317.327
315.087
315.182
313.268
314.242
313.978
314.136
314.396
313.788
314.419
315.941
315.114
313.828
315.517
313.71
313.953
313.529
314.123
314.767
314.278
313.442
309.505
310.482
311.469
311.176
309.583
309.294
309.569
310.175
311.815
310.609
310.203
312.142
310.331
311.802
311.473
309.811
311.994
310.07
310.297
310.393
306.839
305.9
306.166
306.81
305.81
305.788
306.023
304.638
304.913
305.948
305.292
306.111
305.832
305.606
304.815
305.471
305.471
305.751
306.295
305.96
301.126
302.033
302.067
301.997
302.759
301.102
301.062
301.207
301.623
302.304
302.976
302.52
300.751
301.912
302.537
303.749
302.389
301.971
301.773
303.334
332.575
332.549
330.652
331.674
331.698
330.963
332.639
331.866
331.604
331.839
332.624
331.79
331.841
332.598
332.802
330.81
330.735
329.929
331.972
332.219
328.439
327.84
327.329
328.749
326.86
328.005
326.278
327.878
328.224
328.078
327.421
328.727
327.894
327.923
326.624
327.354
327.277
326.503
326.61
328.704
322.947
323.643
324.525
322.99
321.487
321.695
323.343
324.377
324.86
321.729
322.43
322.88
323.133
324.008
321.161
322.295
322.906
322.212
322.498
323.055
318.871
319.504
319.268
319.274
318.717
319.238
319.217
318.355
318.526
318.11
320.178
317.781
318.473
318.979
317.209
317.228
319.112
317.703
318.687
317.627
314.649
314.608
315.645
315.504
315.128
312.454
314.157
315.699
315.005
316.139
313.749
313.536
314.83
314.097
313.831
314.87
315.45
313.771
315.091
312.441
310.244
309.555
309.723
311.424
310.679
310.904
310.129
311.103
310.659
312.423
309.986
309.791
310.627
311.026
309.008
310.253
311.227
310.862
309.978
310.802
306.603
305.21
306.145
306.968
304.414
305.725
305.61
306.246
306.393
304.879
304.355
305.799
307.171
306.623
305.885
305.449
307.039
306.34
307.976
306.771
301.873
302.202
302.875
302.358
301.696
301.311
301.267
303.22
302.137
301.931
301.238
302.176
302.287
301.184
301.405
301.495
301.497
301.17
303.239
302.334
333.953
333.006
332.472
331.378
331.986
331.805
331.516
331.817
333.311
331.926
333.948
333.563
333.659
331.801
331.429
330.79
331.151
332.63
333.361
333.216
329.226
327.398
328.582
327.391
327.797
327.596
327.74
327.983
328.401
328.547
328.069
328.773
327.977
326.641
327.342
328.5
327.739
327.027
326.784
328.283
324.718
322.06
323.617
323.355
322.818
323.384
324.378
324.457
323.587
321.581
325.02
322.955
323.792
322.419
323.66
324.746
322.834
322.9
323.324
323.46
319.73
318.645
318.592
318.496
318.898
319.813
318.859
319.753
318.901
319.311
319.036
318.185
318.627
318.854
317.864
317.867
319.722
318.72
319.284
320.007
315.347
315.188
314.607
314.096
314.976
315.763
316.244
314.673
314.489
314.926
314.987
314.854
315.335
313.754
313.799
314.918
314.507
315.594
313.464
315.314
308.896
310.698
310.889
310.51
309.218
311.036
310.906
310.702
310.301
309.545
309.54
309.219
311.111
311.463
309.988
310.475
311.44
310.389
310.909
310.424
306.111
304.84
305.213
306.699
305.333
305.752
306.483
305.735
306.918
306.098
306.729
306.619
306.825
306.784
306.115
307.047
305.925
306.314
305.868
305.438
303.064
302.23
301.531
300.542
302.345
302.05
302.237
302.892
302.217
302.335
301.847
302.243
301.295
302.34
302.715
302.394
303.126
301.165
302.287
302.055
332.784
333.104
334.664
334.696
332.982
332.725
333.314
334.333
332.407
333.838
334.189
333.008
331.886
334.389
332.649
334.432
332.816
329.847
332.317
334.571
328.863
328.672
326.8
327.681
328.041
328.525
329.134
328.14
330.016
326.948
328.649
328.985
327.659
329.784
327.708
328.889
328.116
328.56
328.001
328.27
324.608
323.587
324.063
324.142
324.554
325.061
324.731
324.613
323.525
324.274
325.628
325.48
324.384
324.03
323.975
324.088
321.373
323.28
322.885
323.929
319.683
320.946
320.691
317.109
319.406
318.268
318.597
320.973
319.542
319.82
318.989
320.369
320.502
320.183
319.209
319.203
320.937
319.396
320.579
319.203
315.283
315.434
314.268
314.853
314.859
314.354
315.479
314.702
314.537
315.266
316.631
313.062
316.36
316.426
314.573
314.655
315.576
314.54
315.706
315.019
312.072
310.782
311.758
310.586
310.336
310.748
310.571
310.81
311.112
311.045
310.536
312.952
311.018
309.827
309.762
310.665
311.298
310.516
311.434
311.475
303.738
307.914
306.821
306.091
305.925
305.964
306.41
305.053
305.279
306.909
306.561
305.121
306.457
306.312
305.977
307.136
306.689
307.921
307.026
306.695
303.496
302.974
303.222
301.19
302.058
300.973
303.269
301.057
301.695
302.496
301.759
302.893
302.529
303.193
302.066
301.543
301.742
301.428
302.036
302.154
335.332
334.031
333.786
333.018
332.387
333.912
334.191
333.066
332.851
332.475
334.901
333.025
333.602
333.726
332.095
333.046
333.476
331.792
332.662
333.176
330.853
329.028
329.31
329.164
329.278
329.998
329.648
329.433
328.314
330.17
330.281
329.86
329.749
328.806
329.536
329.595
329.463
329.678
329.454
330.545
327.536
325.671
326.158
325.334
323.322
324.899
324.038
325.078
325.225
323.711
323.756
326.264
325.438
325.133
325.278
324.867
323.643
323.816
323.68
324.913
320.03
320.149
319.213
321.204
320.463
319.668
319.068
318.052
320.77
320.147
319.371
320.181
320.503
319.149
320.487
320.208
320.016
319.129
318.677
321.091
315.801
316.212
314.315
315.094
316.322
315.791
314.758
316.868
317.749
316.182
316.993
315.541
315.951
314.24
315.2
315.782
316.263
314.543
314.62
316.991
312.041
311.986
311.187
311.558
310.799
312.562
310.828
310.211
311.597
311.863
309.91
311.496
308.577
310.103
311.207
310.99
310.153
311.331
311.488
311.393
306.81
306.885
306.354
307.538
305.993
307.633
308.005
307.234
305.53
307.076
306.704
307.3
307.344
305.893
306.831
306.632
307.516
306.138
307.574
306.542
301.557
304.031
301.494
301.895
302.775
302.963
303.243
302.389
302.364
303.784
302.969
301.225
301.008
300.905
303.262
301.507
301.775
302.826
301.717
300.81
335.716
336.276
335.062
334.77
335.131
334.146
333.105
334.846
335.028
334.393
334.626
336.023
335.426
334.568
332.455
334.734
335.034
332.282
333.928
336.389
329.865
330.791
330.05
330.476
328.416
330.542
330.336
330.578
329.914
329.397
330.115
331.18
330.579
329.647
329.185
328.11
328.223
330.451
330.673
329.773
326.152
325.151
325.108
324.088
325.746
325.751
326.38
325.39
325.231
325.565
326.193
325.789
324.449
324.929
323.459
325.015
323.674
324.309
324.387
324.932
323.107
319.258
319.803
319.207
319.435
320.596
320.951
319.908
319.42
321.032
320.961
320.257
319.625
321.111
321.269
319.735
321.323
318.963
320.922
319.459
316.479
315.871
316.101
314.543
315.97
315.229
313.922
316.377
315.398
315.043
314.719
315.577
314.853
316.216
315.809
314.867
316.374
317.063
315.774
316.567
310.97
311.285
311.556
311.316
312.37
311.767
311.873
310.575
310.361
310.242
310.703
312.232
312.055
311.85
311.978
311.24
312.667
311.843
311.567
309.295
307.889
305.887
306.874
306.167
307.02
306.383
305.279
306.817
308.034
306.917
306.934
307.141
307.24
306.313
306.814
308.657
307.37
306.542
306.392
307.086
300.876
301.822
302.342
301.39
301.349
302.066
301.903
302.364
302.001
301.7
302.361
303.878
301.494
302.699
303.597
303.106
301.277
303.56
302.141
301.976
336.086
335.279
336.636
337.629
334.671
335.8
335.192
336.318
336.726
335.692
332.515
335.001
334.111
334.724
335.097
334.555
334.34
333.477
334.6
338.098
330.806
331.221
329.913
331.534
331.26
332.235
329.644
331.63
330.612
332.142
332.527
329.509
331.909
329.811
331.497
330.762
331.447
331.041
331.5
329.858
328.749
326.9
325.595
325.399
324.903
325.29
324.9
325.984
326.131
324.785
325.223
324.519
324.772
324.124
324.541
325.914
324.064
325.609
325.776
325.701
320.399
320.572
319.203
320.841
319.992
320.439
320.687
320.804
319.237
320.974
320.807
320.67
320.101
320.264
319.201
318.906
321.249
319.53
320.662
319.517
316.97
317.266
316.896
316.484
316.45
316.79
316.676
316.069
316.171
317.211
315.405
315.361
315.819
316.238
315.746
315.527
316.446
315.386
317.422
317.07
311.326
311.659
311.297
310.759
310.375
310.852
311.665
310.557
311.051
311.488
312.789
310.672
309.919
312.951
312.551
310.691
310.012
310.906
311.484
311.761
305.377
307.535
306.526
306.811
306.884
307.467
307.851
307.666
307.918
306.312
307.107
305.558
306.595
306.416
307.028
307.441
306.621
307.312
307.169
306.642
301.477
301.832
302.068
303.715
301.277
301.547
302.41
302.567
302.188
301.999
301.803
302.34
301.989
301.775
301.926
302.152
301.141
302.485
301.767
302.169
337.539
337.063
336.676
336.744
337.344
335.497
335.491
336.763
335.363
335.507
335.672
335.361
336.232
335.792
335.619
335.54
335.727
335.76
334.219
336.518
331.904
331.674
331.327
332.564
330.116
330.639
329.606
330.775
330.019
330.341
332.269
330.128
332.194
330.866
330.966
329.731
330.77
329.828
331.577
330.618
326.371
325.781
324.899
325.894
325.632
324.568
325.288
324.824
323.674
326.545
324.028
325.472
323.97
325.614
327.098
326.824
326.713
326.44
324.949
325.47
321.174
321.123
323.119
320.778
322.021
321.144
320.085
321.746
320.773
319.938
321.911
319.879
320.112
320.459
319.841
322.494
320.666
321.84
321.705
321.06
316.334
318.308
317.003
316.784
315.772
316.946
316.561
316.019
317.176
317.201
316.201
314.582
315.992
315.609
314.661
316.1
316.18
314.993
316.914
317.099
312.164
311.781
311.4
310.981
313.101
310.966
309.586
312.119
311.98
312.223
310.866
312.486
312.406
310.293
310.733
311.832
311.77
311.296
312.779
312.523
306.565
307.597
308.088
307.66
306.526
306.196
307.936
305.779
308.598
306.104
306.746
305.586
307.705
307.388
307.692
306.456
307.408
306.989
307.161
307.086
302.103
302.855
302.01
300.888
303.474
302.905
300.833
303.656
301.559
301.418
301.972
300.462
301.919
302.489
300.887
302.116
300.526
301.195
302.545
303.26
)
;

boundaryField
{
    hotSide
    {
        type            fixedGradient;
        gradient        nonuniform List<scalar> 
400
(
321.511
322.87
325.591
329.677
335.133
341.965
350.181
359.788
370.794
383.208
397.037
412.289
428.971
447.088
466.647
487.651
510.105
534.011
559.372
586.191
323.738
325.08
327.767
331.802
337.194
343.949
352.078
361.591
372.498
384.81
398.537
413.687
430.268
448.289
467.755
488.672
511.043
534.872
560.161
586.913
326.149
327.47
330.116
334.091
339.406
346.071
354.099
363.503
374.296
386.491
400.101
415.136
431.606
449.52
468.885
489.706
511.988
535.735
560.948
587.63
328.704
330
332.597
336.503
341.73
348.292
356.205
365.485
376.15
388.215
401.695
416.604
432.954
450.753
470.009
490.73
512.919
536.579
561.714
588.325
331.33
332.599
335.142
338.97
344.099
350.546
358.332
367.477
378.003
389.928
403.271
418.047
434.27
451.949
471.095
491.712
513.807
537.382
562.439
588.978
333.918
335.158
337.643
341.389
346.414
352.74
360.392
369.397
379.779
391.562
404.765
419.407
435.503
453.065
472.101
492.618
514.622
538.114
563.096
589.569
336.321
337.531
339.959
343.622
348.544
354.751
362.274
371.142
381.385
393.031
406.101
420.618
436.595
454.047
472.983
493.409
515.33
538.747
563.663
590.076
338.36
339.543
341.92
345.509
350.339
356.44
363.847
372.595
382.718
394.244
407.2
421.608
437.485
454.844
473.695
494.045
515.897
539.253
564.114
590.478
339.852
341.015
343.352
346.885
351.645
357.665
364.985
373.643
383.675
395.113
407.984
422.312
438.116
455.407
474.197
494.491
516.294
539.606
564.428
590.758
340.643
341.795
344.11
347.613
352.334
358.311
365.584
374.193
384.176
395.567
408.393
422.679
438.443
455.699
474.456
494.722
516.498
539.788
564.589
590.901
340.643
341.795
344.11
347.613
352.334
358.311
365.584
374.193
384.176
395.567
408.393
422.679
438.443
455.699
474.456
494.722
516.498
539.788
564.589
590.901
339.852
341.015
343.352
346.885
351.645
357.665
364.985
373.643
383.675
395.113
407.984
422.312
438.116
455.407
474.197
494.491
516.294
539.606
564.428
590.758
338.36
339.543
341.92
345.509
350.339
356.44
363.847
372.595
382.718
394.244
407.2
421.608
437.485
454.844
473.695
494.045
515.897
539.253
564.114
590.478
336.321
337.531
339.959
343.622
348.544
354.751
362.274
371.142
381.385
393.031
406.101
420.618
436.595
454.047
472.983
493.409
515.33
538.747
563.663
590.076
333.918
335.158
337.643
341.389
346.414
352.74
360.392
369.397
379.779
391.562
404.765
419.407
435.503
453.065
472.101
492.618
514.622
538.114
563.096
589.569
331.33
332.599
335.142
338.97
344.099
350.546
358.332
367.477
378.003
389.928
403.271
418.047
434.27
451.949
471.095
491.712
513.807
537.382
562.439
588.978
328.704
330
332.597
336.503
341.73
348.292
356.205
365.485
376.15
388.215
401.695
416.604
432.954
450.753
470.009
490.73
512.919
536.579
561.714
588.325
326.149
327.47
330.116
334.091
339.406
346.071
354.099
363.503
374.296
386.491
400.101
415.136
431.606
449.52
468.885
489.706
511.988
535.735
560.948
587.63
323.738
325.08
327.767
331.802
337.194
343.949
352.078
361.591
372.498
384.81
398.537
413.687
430.268
448.289
467.755
488.672
511.043
534.872
560.161
586.913
321.511
322.87
325.591
329.677
335.133
341.965
350.181
359.788
370.794
383.208
397.037
412.289
428.971
447.088
466.647
487.651
510.105
534.011
559.372
586.191
)
;
    }
    coldSide
    {
        type            mixed;
        refValue        uniform 300;
        refGradient     uniform 0;
        valueFraction   uniform 0.991591;
        source          uniform 0;
        value           nonuniform List<scalar> 
400
(
300.008
300.008
300.013
300.011
300.016
300.016
300.004
300.018
300.007
299.998
300.02
300.014
300.009
300.016
300.026
300.029
300.013
300.007
300.012
300.018
300.015
300.006
300.021
299.993
300.018
300.015
299.994
300.01
300.007
300.009
300.026
300.009
300.017
300.019
300.019
300.025
300.034
300.015
300.015