/*--------------------------------*- C++ -*----------------------------------*\
| =========                 |                                                 |
| \\      /  F ield         | OpenFOAM: The Open Source CFD Toolbox           |
|  \\    /   O peration     | Version:  2212                                  |
|   \\  /    A nd           | Website:  www.openfoam.com                      |
|    \\/     M anipulation  |                                                 |
\*---------------------------------------------------------------------------*/
FoamFile
{
    version     2.0;
    format      ascii;
    arch        "LSB;label=32;scalar=64";
    class       volScalarField;
    location    "0";
    object      stateMean;
}
// * * * * * * * * * * * * * * * * * * * * * * * * * * * * * * * * * * * * * //

dimensions      [0 0 0 1 0 0 0];

internalField   nonuniform List<scalar> 
3200
(
341.044
341.919
342.922
343.866
344.642
345.335
345.859
346.271
346.466
346.63
346.596
346.52
346.197
345.795
345.223
344.605
343.813
342.898
341.985
341.149
335.67
336.514
337.321
338.084
338.76
339.362
339.806
340.187
340.379
340.514
340.486
340.339
340.139
339.751
339.323
338.647
338.076
337.214
336.407
335.674
330.303
330.889
331.627
332.326
332.893
333.306
333.646
334.048
334.2
334.331
334.244
334.16
333.991
333.726
333.221
332.815
332.226
331.538
330.807
330.211
324.779
325.35
325.814
326.446
326.872
327.302
327.591
327.873
328.023
328.07
328.127
328.01
327.814
327.545
327.245
326.862
326.374
325.822
325.244
324.745
319.373
319.743
320.154
320.646
320.921
321.256
321.472
321.703
321.839
321.917
321.853
321.807
321.629
321.492
321.26
320.814
320.463
320.069
319.583
319.282
313.886
314.145
314.44
314.749
315.004
315.205
315.37
315.54
315.561
315.697
315.625
315.652
315.448
315.331
315.184
314.915
314.638
314.323
314.102
313.757
308.333
308.478
308.704
308.891
309.023
309.137
309.225
309.27
309.418
309.312
309.4
309.363
309.305
309.283
309.063
308.979
308.874
308.61
308.481
308.297
302.786
302.848
302.903
302.94
303.003
302.999
303.134
303.061
303.131
303.182
303.185
303.208
303.117
303.112
303.139
303.092
302.963
302.845
302.869
302.777
341.778
342.779
343.687
344.61
345.395
346.11
346.567
346.983
347.335
347.447
347.409
347.251
347.057
346.627
346.008
345.377
344.547
343.598
342.67
341.75
336.3
337.024
337.892
338.713
339.393
339.989
340.418
340.787
341.038
341.121
341.156
340.967
340.693
340.416
339.932
339.413
338.631
337.819
336.965
336.216
330.741
331.38
332.082
332.776
333.265
333.927
334.283
334.497
334.809
334.823
334.832
334.781
334.491
334.23
333.743
333.373
332.667
332.048
331.295
330.765
325.228
325.71
326.289
326.832
327.318
327.66
328.092
328.269
328.403
328.536
328.576
328.438
328.285
328.064
327.717
327.231
326.725
326.197
325.63
325.145
319.58
320.057
320.476
320.953
321.2
321.509
321.796
322.043
322.082
322.173
322.147
322.211
322.042
321.755
321.455
321.196
320.817
320.402
319.896
319.579
314.022
314.366
314.695
314.91
315.209
315.485
315.606
315.745
315.878
315.871
315.85
315.804
315.783
315.568
315.411
315.127
314.868
314.55
314.218
313.985
308.475
308.636
308.752
308.941
309.13
309.258
309.423
309.456
309.498
309.55
309.554
309.512
309.46
309.374
309.258
309.094
308.89
308.781
308.57
308.437
302.825
302.848
302.93
303.084
303.009
303.057
303.147
303.194
303.187
303.22
303.182
303.195
303.187
303.151
303.054
303.078
303.03
302.959
302.947
302.848
342.723
343.597
344.58
345.58
346.41
347.102
347.671
348.081
348.393
348.571
348.53
348.382
348.021
347.713
347.068
346.38
345.621
344.642
343.667
342.753
337.118
337.85
338.767
339.535
340.222
340.79
341.342
341.73
341.947
342.035
342.04
341.882
341.725
341.37
340.788
340.133
339.406
338.638
337.792
337.052
331.414
332.024
332.831
333.546
334.023
334.599
335.005
335.26
335.539
335.649
335.545
335.517
335.27
334.926
334.486
334.069
333.412
332.742
331.97
331.33
325.772
326.304
326.807
327.349
327.93
328.25
328.701
328.88
329.085
329.222
329.114
329.003
328.82
328.604
328.218
327.797
327.347
326.751
326.203
325.716
320.022
320.452
320.894
321.296
321.717
322.03
322.214
322.532
322.596
322.65
322.605
322.617
322.51
322.217
321.897
321.647
321.304
320.745
320.285
319.972
314.346
314.619
314.917
315.282
315.457
315.693
315.931
316.053
316.09
316.162
316.205
316.06
316.01
315.916
315.697
315.453
315.207
314.911
314.567
314.259
308.623
308.717
309.033
309.176
309.302
309.385
309.624
309.675
309.753
309.707
309.746
309.692
309.687
309.567
309.438
309.295
309.135
308.927
308.794
308.599
302.928
302.947
302.966
303.073
303.139
303.208
303.248
303.196
303.238
303.247
303.245
303.277
303.206
303.231
303.152
303.032
303.05
303.025
302.928
302.84
343.718
344.652
345.76
346.737
347.453
348.224
348.765
349.247
349.581
349.607
349.613
349.526
349.17
348.763
348.199
347.447
346.612
345.633
344.588
343.694
337.959
338.738
339.599
340.474
341.227
341.774
342.297
342.596
342.918
343.044
343.014
342.86
342.634
342.197
341.695
341.121
340.373
339.443
338.681
337.922
332.185
332.797
333.534
334.277
334.829
335.307
335.802
336.138
336.286
336.441
336.376
336.302
336.103
335.688
335.302
334.755
334.149
333.423
332.66
332.016
326.305
326.882
327.449
328.077
328.542
328.925
329.291
329.548
329.716
329.819
329.778
329.707
329.492
329.197
328.864
328.447
328.028
327.379
326.769
326.187
320.509
320.876
321.404
321.832
322.222
322.501
322.811
323.02
323.11
323.152
323.111
323.099
322.926
322.757
322.452
322.118
321.707
321.287
320.847
320.396
314.62
314.896
315.32
315.572
315.875
316.12
316.186
316.477
316.554
316.588
316.535
316.455
316.44
316.236
315.974
315.831
315.548
315.184
314.885
314.6
308.841
308.961
309.147
309.444
309.563
309.687
309.784
309.866
309.889
309.954
309.935
309.87
309.833
309.741
309.658
309.471
309.335
309.2
308.949
308.797
302.961
302.976
303.11
303.103
303.249
303.264
303.313
303.32
303.278
303.324
303.351
303.273
303.313
303.212
303.182
303.201
303.109
303.118
303.011
302.943
344.725
345.697
346.703
347.686
348.613
349.354
349.898
350.261
350.592
350.739
350.816
350.596
350.333
349.868
349.334
348.526
347.605
346.621
345.567
344.603
338.813
339.62
340.484
341.34
342.102
342.751
343.314
343.618
343.947
344.005
343.972
343.835
343.636
343.17
342.727
342.05
341.281
340.408
339.477
338.683
332.851
333.471
334.223
334.951
335.617
336.174
336.592
336.954
337.166
337.199
337.214
337.083
336.82
336.546
336.102
335.503
334.939
334.191
333.422
332.787
327.062
327.443
328.088
328.598
329.149
329.599
329.883
330.197
330.432
330.441
330.528
330.393
330.124
329.844
329.516
329.033
328.514
327.956
327.391
326.843
320.971
321.385
321.788
322.236
322.7
322.939
323.316
323.506
323.61
323.719
323.691
323.626
323.465
323.361
323.009
322.61
322.223
321.745
321.209
320.84
314.952
315.264
315.646
315.927
316.197
316.452
316.615
316.735
316.888
316.965
316.93
316.823
316.72
316.609
316.399
316.176
315.878
315.584
315.213
314.891
308.99
309.133
309.321
309.531
309.74
309.916
310.007
310.066
310.147
310.172
310.193
310.122
310.06
309.997
309.922
309.669
309.542
309.316
309.08
308.942
303.041
303.005
303.139
303.231
303.244
303.33
303.341
303.331
303.365
303.4
303.476
303.405
303.373
303.346
303.267
303.303
303.188
303.15
303.105
303.079
345.68
346.688
347.711
348.727
349.582
350.287
350.894
351.368
351.704
351.791
351.819
351.591
351.311
350.931
350.335
349.57
348.592
347.602
346.546
345.519
339.685
340.414
341.363
342.275
343.017
343.603
344.153
344.562
344.803
344.974
344.985
344.833
344.502
344.08
343.602
342.908
342.237
341.194
340.342
339.525
333.525
334.215
335.077
335.771
336.369
336.934
337.382
337.682
337.837
338.034
337.996
337.886
337.651
337.316
336.899
336.292
335.669
334.952
334.145
333.452
327.493
328.037
328.586
329.346
329.801
330.204
330.584
330.849
330.987
331.09
331.085
330.972
330.748
330.484
330.153
329.686
329.123
328.577
327.93
327.379
321.442
321.889
322.352
322.788
323.13
323.547
323.726
324.013
324.172
324.149
324.282
324.132
323.974
323.717
323.404
323.155
322.617
322.236
321.72
321.307
315.329
315.612
315.972
316.253
316.539
316.838
317.015
317.085
317.227
317.352
317.244
317.191
317.104
316.955
316.768
316.484
316.234
315.87
315.549
315.17
309.203
309.343
309.498
309.768
309.898
310.046
310.24
310.199
310.418
310.38
310.38
310.349
310.297
310.169
310.038
309.933
309.746
309.484
309.357
309.157
303.057
303.176
303.222
303.256
303.36
303.317
303.422
303.447
303.454
303.424
303.548
303.532
303.457
303.408
303.378
303.309
303.251
303.217
303.121
303.092
346.58
347.548
348.673
349.667
350.588
351.29
352.018
352.486
352.73
352.878
352.834
352.68
352.42
351.845
351.359
350.491
349.551
348.624
347.463
346.457
340.445
341.248
342.163
343.111
343.886
344.482
345.002
345.455
345.762
345.845
345.79
345.692
345.37
344.936
344.456
343.813
342.974
342.015
341.188
340.27
334.249
334.957
335.785
336.45
337.077
337.665
338.076
338.427
338.64
338.823
338.727
338.615
338.406
338.101
337.545
336.97
336.359
335.607
334.747
334.085
328.127
328.622
329.277
329.893
330.401
330.759
331.14
331.429
331.665
331.714
331.734
331.629
331.36
331.101
330.774
330.275
329.764
329.112
328.416
327.875
321.831
322.234
322.739
323.253
323.675
323.986
324.272
324.481
324.604
324.672
324.681
324.553
324.506
324.132
323.92
323.557
323.106
322.672
322.119
321.669
315.543
315.9
316.236
316.587
316.928
317.083
317.319
317.439
317.646
317.599
317.58
317.514
317.395
317.31
317.071
316.894
316.587
316.143
315.743
315.522
309.361
309.575
309.767
309.994
310.211
310.339
310.399
310.517
310.54
310.632
310.643
310.504
310.459
310.354
310.302
310.19
309.944
309.699
309.495
309.315
303.114
303.21
303.309
303.33
303.377
303.469
303.475
303.635
303.576
303.554
303.651
303.588
303.562
303.473
303.435
303.333
303.302
303.29
303.233
303.126
347.412
348.421
349.488
350.624
351.525
352.294
352.938
353.339
353.667
353.805
353.833
353.591
353.299
352.784
352.157
351.423
350.463
349.456
348.274
347.289
341.125
341.983
342.968
343.868
344.624
345.311
345.771
346.28
346.503
346.656
346.656
346.576
346.157
345.724
345.205
344.538
343.729
342.807
341.842
340.999
334.9
335.499
336.342
337.067
337.801
338.316
338.797
339.122
339.336
339.477
339.446
339.319
339.092
338.77
338.227
337.639
336.985
336.212
335.425
334.722
328.499
329.058
329.765
330.333
330.965
331.354
331.804
332.011
332.229
332.262
332.266
332.186
331.971
331.725
331.201
330.755
330.305
329.566
328.873
328.406
322.221
322.684
323.095
323.647
324.051
324.41
324.685
324.905
325.078
325.082
325.09
325.042
324.831
324.638
324.354
324.032
323.569
323.065
322.501
322.091
315.903
316.163
316.585
316.918
317.214
317.402
317.614
317.781
317.881
317.932
317.968
317.886
317.761
317.588
317.439
317.14
316.806
316.417
316.101
315.818
309.528
309.71
309.927
310.166
310.303
310.453
310.596
310.762
310.746
310.716
310.812
310.684
310.683
310.523
310.496
310.316
310.118
309.816
309.631
309.49
303.247
303.311
303.336
303.446
303.461
303.486
303.574
303.6
303.606
303.613
303.662
303.562
303.621
303.543
303.496
303.408
303.366
303.339
303.268
303.229
348.232
349.221
350.426
351.432
352.318
353.135
353.791
354.258
354.49
354.758
354.735
354.547
354.17
353.698
353.104
352.204
351.266
350.253
349.046
348.104
341.918
342.678
343.626
344.581
345.34
346.082
346.596
346.934
347.272
347.416
347.411
347.273
346.936
346.478
345.954
345.24
344.433
343.528
342.598
341.659
335.379
336.184
336.844
337.78
338.449
338.967
339.436
339.788
339.965
340.17
340.148
340.017
339.745
339.407
338.856
338.214
337.588
336.79
336.004
335.257
328.905
329.585
330.289
330.874
331.392
331.92
332.28
332.533
332.785
332.783
332.764
332.65
332.357
332.17
331.814
331.305
330.69
330.07
329.436
328.751
322.59
323.02
323.506
324.033
324.465
324.893
325.102
325.365
325.458
325.49
325.479
325.428
325.233
325.016
324.712
324.359
323.912
323.476
322.859
322.446
316.096
316.45
316.75
317.131
317.491
317.72
317.976
318.098
318.162
318.243
318.221
318.188
318.075
317.915
317.676
317.388
317.11
316.665
316.373
316.076
309.638
309.871
310.007
310.376
310.564
310.728
310.778
310.803
310.87
310.873
311.009
310.881
310.88
310.747
310.597
310.474
310.274
310.044
309.845
309.622
303.236
303.281
303.32
303.426
303.461
303.618
303.649
303.672
303.719
303.721
303.706
303.711
303.671
303.593
303.588
303.478
303.364
303.364
303.344
303.262
348.94
350.035
351.123
352.189
353.162
353.98
354.57
355.056
355.444
355.461
355.448
355.29
354.916
354.501
353.862
352.989
352.069
350.956
349.79
348.681
342.381
343.287
344.33
345.199
346.018
346.688
347.276
347.685
347.966
348.076
348.127
347.942
347.6
347.161
346.598
345.868
345.08
344.149
343.169
342.236
335.886
336.644
337.512
338.276
338.954
339.554
339.962
340.37
340.661
340.715
340.662
340.6
340.193
339.911
339.408
338.794
338.12
337.388
336.513
335.736
329.401
329.964
330.629
331.329
331.907
332.388
332.783
333.043
333.168
333.279
333.274
333.151
332.941
332.648
332.236
331.843
331.205
330.545
329.859
329.298
322.952
323.388
323.935
324.377
324.773
325.18
325.449
325.692
325.828
325.931
325.9
325.771
325.603
325.382
325.121
324.732
324.265
323.767
323.198
322.756
316.373
316.691
317.08
317.393
317.733
318.004
318.209
318.378
318.422
318.483
318.458
318.418
318.362
318.205
317.967
317.588
317.333
316.906
316.584
316.26
309.884
310.046
310.231
310.4
310.604
310.81
310.825
310.976
311.134
311.114
311.155
311.042
310.972
310.882
310.761
310.597
310.407
310.229
310.006
309.776
303.358
303.402
303.395
303.489
303.527
303.605
303.688
303.724
303.769
303.696
303.698
303.732
303.71
303.646
303.595
303.602
303.464
303.413
303.326
303.327
349.504
350.615
351.795
352.902
353.827
354.578
355.229
355.76
356.099
356.268
356.203
356.013
355.648
355.131
354.498
353.692
352.794
351.57
350.416
349.371
342.975
343.852
344.895
345.839
346.622
347.283
347.884
348.296
348.661
348.666
348.765
348.536
348.259
347.821
347.254
346.427
345.604
344.689
343.723
342.785
336.443
337.169
337.97
338.763
339.496
340.05
340.56
340.928
341.083
341.227
341.191
341.129
340.798
340.425
339.903
339.258
338.575
337.794
336.97
336.162
329.807
330.412
331.089
331.742
332.309
332.785
333.142
333.511
333.579
333.683
333.677
333.594
333.403
333.063
332.647
332.159
331.557
330.915
330.215
329.669
323.231
323.607
324.231
324.712
325.115
325.476
325.889
325.985
326.204
326.167
326.224
326.196
325.957
325.702
325.388
325.028
324.576
324.043
323.521
323.016
316.582
316.931
317.199
317.665
317.975
318.28
318.456
318.592
318.684
318.753
318.696
318.672
318.588
318.375
318.137
317.889
317.569
317.198
316.768
316.475
309.997
310.187
310.438
310.578
310.759
310.972
311.059
311.21
311.251
311.278
311.299
311.249
311.176
311.044
310.887
310.746
310.567
310.354
310.113
309.919
303.272
303.453
303.484
303.556
303.603
303.651
303.739
303.734
303.76
303.786
303.769
303.779
303.721
303.707
303.619
303.548
303.482
303.468
303.347
303.321
350.019
351.175
352.382
353.48
354.445
355.23
355.876
356.363
356.673
356.871
356.805
356.629
356.313
355.811
355.156
354.367
353.271
352.213
351.007
349.875
343.49
344.274
345.38
346.365
347.2
347.901
348.458
348.862
349.132
349.281
349.253
349.097
348.799
348.33
347.715
347.06
346.152
345.241
344.142
343.203
336.863
337.547
338.429
339.177
339.882
340.504
341.003
341.307
341.629
341.722
341.622
341.544
341.238
340.823
340.326
339.767
339.003
338.119
337.329
336.572
330.127
330.704
331.463
332.054
332.639
333.133
333.595
333.788
334.085
334.099
334.068
334.041
333.746
333.442
332.97
332.466
331.922
331.309
330.567
329.924
323.452
323.875
324.479
324.973
325.367
325.768
326.116
326.347
326.499
326.549
326.512
326.388
326.235
326.036
325.724
325.253
324.813
324.345
323.707
323.275
316.805
317.075
317.518
317.873
318.181
318.4
318.603
318.832
318.957
318.938
318.965
318.876
318.738
318.584
318.314
318.102
317.764
317.45
316.958
316.624
310.091
310.219
310.536
310.704
310.973
311.072
311.196
311.386
311.36
311.329
311.424
311.298
311.28
311.189
310.991
310.797
310.739
310.467
310.208
309.949
303.4
303.466
303.518
303.509
303.675
303.732
303.773
303.816
303.783
303.796
303.8
303.772
303.8
303.723
303.739
303.621
303.535
303.454
303.45
303.328
350.519
351.674
352.817
354.011
354.884
355.849
356.446
356.939
357.282
357.365
357.438
357.185
356.846
356.328
355.669
354.729
353.753
352.561
351.385
350.28
343.889
344.802
345.759
346.744
347.635
348.355
348.945
349.333
349.6
349.694
349.719
349.532
349.306
348.767
348.246
347.434
346.615
345.591
344.54
343.661
337.189
337.848
338.797
339.588
340.244
340.915
341.401
341.808
342.005
342.091
342.065
341.93
341.71
341.269
340.832
340.137
339.448
338.585
337.646
336.939
330.374
331.031
331.757
332.406
332.967
333.357
333.789
334.12
334.34
334.375
334.44
334.27
334.06
333.771
333.297
332.85
332.234
331.511
330.807
330.202
323.676
324.178
324.672
325.152
325.63
326.002
326.34
326.625
326.681
326.745
326.72
326.624
326.427
326.3
325.896
325.521
324.996
324.583
323.954
323.509
316.964
317.314
317.616
317.957
318.316
318.612
318.862
318.998
319.085
319.18
319.101
319.091
318.893
318.761
318.554
318.271
317.884
317.54
317.144
316.843
310.232
310.327
310.613
310.837
311.022
311.174
311.307
311.413
311.422
311.502
311.454
311.46
311.35
311.29
311.118
311.001
310.731
310.567
310.294
310.064
303.484
303.459
303.536
303.6
303.647
303.759
303.84
303.801
303.892
303.889
303.863
303.831
303.809
303.826
303.72
303.675
303.611
303.513
303.437
303.346
350.975
352.059
353.322
354.416
355.304
356.183
356.888
357.38
357.665
357.86
357.793
357.559
357.31
356.77
356.089
355.211
354.199
352.954
351.846
350.668
344.202
345.132
346.199
347.132
347.968
348.688
349.342
349.732
349.988
350.07
350.069
349.946
349.665
349.213
348.514
347.71
346.896
345.951
344.833
343.997
337.517
338.226
339.075
339.872
340.575
341.231
341.682
342.098
342.333
342.46
342.327
342.33
341.928
341.692
340.985
340.43
339.692
338.939
337.95
337.105
330.727
331.25
331.988
332.682
333.199
333.689
334.118
334.404
334.602
334.687
334.673
334.547
334.355
334.032
333.545
333.086
332.47
331.821
331.035
330.354
323.838
324.344
324.911
325.408
325.792
326.254
326.503
326.756
326.853
326.977
326.969
326.925
326.776
326.451
326.088
325.73
325.252
324.735
324.212
323.767
316.994
317.363
317.732
318.142
318.459
318.767
318.963
319.119
319.225
319.223
319.322
319.25
319
318.927
318.684
318.37
318.088
317.6
317.203
316.939
310.248
310.447
310.662
310.875
311.082
311.241
311.385
311.401
311.588
311.679
311.561
311.524
311.49
311.349
311.209
311.087
310.826
310.584
310.377
310.245
303.424
303.485
303.533
303.666
303.739
303.8
303.767
303.841
303.814
303.841
303.866
303.867
303.857
303.826
303.796
303.736
303.612
303.59
303.474
303.409
351.321
352.446
353.607
354.693
355.709
356.522
357.209
357.762
357.999
358.261
358.149
357.948
357.623
357.029
356.405
355.482
354.537
353.32
352.063
351.048
344.494
345.362
346.441
347.456
348.308
349.047
349.617
350.069
350.3
350.413
350.418
350.268
349.935
349.453
348.784
348.124
347.215
346.19
345.121
344.185
337.719
338.41
339.262
340.101
340.911
341.462
342.019
342.373
342.592
342.686
342.655
342.548
342.128
341.795
341.297
340.665
339.957
339.122
338.177
337.405
330.867
331.513
332.07
332.844
333.506
333.897
334.395
334.684
334.876
334.898
334.888
334.78
334.528
334.2
333.735
333.291
332.665
331.973
331.296
330.693
323.972
324.445
324.964
325.565
326.027
326.367
326.733
326.915
327.084
327.154
327.108
327.022
326.893
326.612
326.242
325.847
325.478
324.856
324.249
323.862
317.158
317.504
317.931
318.276
318.572
318.809
319.048
319.234
319.28
319.365
319.317
319.304
319.15
319.044
318.772
318.48
318.16
317.74
317.412
317.066
310.283
310.503
310.725
310.991
311.184
311.32
311.417
311.546
311.658
311.74
311.565
311.629
311.489
311.392
311.34
311.122
310.846
310.639
310.398
310.198
303.441
303.571
303.667
303.645
303.729
303.82
303.779
303.825
303.884
303.876
303.898
303.814
303.782
303.855
303.831
303.742
303.695
303.587
303.529
303.436
351.542
352.625
353.799
354.897
355.997
356.867
357.525
357.964
358.382
358.512
358.492
358.221
357.922
357.288
356.588
355.741
354.725
353.61
352.317
351.154
344.636
345.617
346.661
347.635
348.541
349.274
349.799
350.234
350.576
350.637
350.663
350.489
350.113
349.621
349.113
348.247
347.462
346.358
345.363
344.347
337.804
338.584
339.492
340.32
341.046
341.689
342.191
342.464
342.696
342.833
342.82
342.683
342.389
342.049
341.495
340.889
340.055
339.193
338.348
337.537
331.005
331.544
332.339
332.983
333.535
334.132
334.5
334.72
334.983
335.086
335.057
334.857
334.709
334.375
333.977
333.405
332.786
332.077
331.41
330.786
324.235
324.571
325.133
325.72
326.165
326.557
326.82
327.079
327.209
327.276
327.186
327.245
326.991
326.695
326.414
325.978
325.448
325.056
324.431
323.893
317.263
317.63
317.971
318.348
318.699
318.906
319.124
319.331
319.462
319.466
319.394
319.364
319.25
319.135
318.814
318.633
318.216
317.838
317.427
317.049
310.341
310.618
310.796
311.027
311.241
311.374
311.518
311.567
311.653
311.747
311.695
311.648
311.537
311.471
311.379
311.196
310.885
310.698
310.545
310.237
303.494
303.533
303.591
303.668
303.833
303.799
303.913
303.832
303.948
303.913
303.936
303.941
303.942
303.813
303.815
303.813
303.675
303.622
303.556
303.407
351.636
352.751
353.975
355.143
356.077
356.975
357.657
358.186
358.483
358.672
358.596
358.416
358.044
357.483
356.752
355.995
354.81
353.682
352.453
351.25
344.823
345.734
346.802
347.776
348.611
349.364
349.942
350.326
350.67
350.815
350.669
350.624
350.228
349.753
349.168
348.468
347.57
346.543
345.437
344.521
337.871
338.698
339.588
340.474
341.121
341.759
342.248
342.6
342.796
342.958
342.933
342.729
342.498
342.086
341.582
340.986
340.197
339.306
338.413
337.649
331.047
331.643
332.375
333.149
333.638
334.1
334.584
334.852
335.092
335.176
335.101
334.972
334.728
334.478
334.015
333.464
332.886
332.135
331.397
330.832
324.206
324.655
325.211
325.777
326.173
326.63
326.886
327.109
327.25
327.387
327.302
327.268
327.053
326.766
326.431
326.046
325.554
325.052
324.505
323.97
317.249
317.551
317.996
318.429
318.758
318.964
319.252
319.458
319.533
319.646
319.522
319.409
319.317
319.145
318.902
318.636
318.287
317.881
317.504
317.091
310.387
310.517
310.83
311.041
311.175
311.434
311.588
311.543
311.626
311.759
311.695
311.613
311.652
311.533
311.393
311.197
310.986
310.751
310.469
310.258
303.529
303.583
303.659
303.723
303.781
303.756
303.813
303.897
303.958
303.975
303.945
303.91
303.89
303.91
303.876
303.717
303.662
303.657
303.549
303.409
351.742
352.817
353.976
355.216
356.185
356.988
357.72
358.199
358.536
358.732
358.69
358.538
358.094
357.54
356.843
355.984
354.851
353.691
352.532
351.352
344.857
345.769
346.857
347.833
348.668
349.471
350.004
350.454
350.763
350.897
350.891
350.634
350.313
349.859
349.194
348.517
347.584
346.536
345.428
344.564
337.982
338.751
339.624
340.409
341.18
341.843
342.28
342.674
342.902
343.073
342.953
342.902
342.553
342.201
341.644
340.986
340.125
339.423
338.453
337.637
331.11
331.706
332.477
333.09
333.78
334.255
334.592
334.984
335.156
335.199
335.096
335.107
334.808
334.509
334.051
333.521
332.838
332.233
331.492
330.794
324.17
324.674
325.279
325.695
326.27
326.548
326.973
327.152
327.371
327.393
327.333
327.228
327.076
326.835
326.538
326.068
325.608
325.1
324.493
324.012
317.286
317.645
318.047
318.379
318.671
318.993
319.251
319.369
319.476
319.532
319.527
319.451
319.387
319.11
318.955
318.591
318.286
317.827
317.496
317.172
310.354
310.578
310.839
311.066
311.242
311.459
311.583
311.612
311.74
311.688
311.707
311.674
311.565
311.518
311.334
311.154
310.976
310.769
310.533
310.364
303.485
303.514
303.577
303.725
303.791
303.826
303.9
303.952
303.933
303.916
303.872
303.996
303.908
303.832
303.78
303.773
303.69
303.599
303.574
303.507
351.67
352.793
354.069
355.158
356.152
357
357.734
358.162
358.555
358.678
358.586
358.449
358.098
357.537
356.848
355.952
354.892
353.686
352.495
351.341
344.86
345.868
346.845
347.852
348.666
349.376
350.007
350.457
350.71
350.841
350.792
350.602
350.335
349.822
349.261
348.499
347.576
346.514
345.537
344.482
337.928
338.787
339.648
340.401
341.249
341.792
342.293
342.687
342.923
343.072
343.031
342.911
342.57
342.182
341.602
340.995
340.219
339.349
338.433
337.717
331.072
331.709
332.38
333.137
333.73
334.208
334.604
334.933
335.17
335.199
335.167
335.037
334.841
334.529
334.082
333.549
332.86
332.184
331.523
330.851
324.167
324.726
325.224
325.759
326.195
326.544
326.92
327.23
327.37
327.402
327.309
327.183
327.109
326.835
326.427
326.077
325.632
325.052
324.482
324.057
317.289
317.596
318.014
318.424
318.757
319.024
319.252
319.389
319.567
319.556
319.517
319.504
319.312
319.157
318.963
318.662
318.262
317.817
317.571
317.082
310.441
310.551
310.817
311.015
311.325
311.5
311.574
311.642
311.745
311.741
311.703
311.658
311.649
311.545
311.36
311.201
310.928
310.775
310.527
310.269
303.557
303.504
303.581
303.747
303.807
303.856
303.924
303.912
303.992
303.892
303.905
303.948
303.916
303.816
303.798
303.734
303.657
303.569
303.467
303.43
351.629
352.764
353.909
355.086
356.071
356.929
357.636
358.098
358.493
358.644
358.612
358.367
357.997
357.484
356.754
355.876
354.841
353.629
352.461
351.296
344.812
345.723
346.792
347.715
348.639
349.382
349.903
350.436
350.658
350.796
350.751
350.567
350.289
349.811
349.197
348.391
347.455
346.463
345.426
344.435
337.896
338.703
339.589
340.437
341.203
341.759
342.273
342.605
342.89
342.967
342.994
342.794
342.575
342.123
341.657
340.948
340.194
339.404
338.436
337.682
331.143
331.738
332.402
333.077
333.666
334.198
334.56
334.909
335.095
335.133
335.204
335.058
334.767
334.52
334.092
333.611
332.876
332.196
331.457
330.827
324.179
324.733
325.199
325.786
326.196
326.534
326.907
327.176
327.29
327.395
327.339
327.196
327.052
326.849
326.453
326.066
325.548
324.966
324.445
324.03
317.34
317.577
318.05
318.397
318.67
318.963
319.202
319.383
319.573
319.563
319.605
319.508
319.367
319.182
318.898
318.623
318.315
317.959
317.491
317.118
310.388
310.571
310.841
311.054
311.299
311.392
311.513
311.659
311.768
311.835
311.76
311.73
311.595
311.51
311.361
311.134
311.057
310.779
310.485
310.259
303.484
303.537
303.622
303.642
303.791
303.842
303.865
303.936
303.956
303.971
303.93
303.927
303.952
303.841
303.875
303.76
303.69
303.626
303.556
303.467
)
;

boundaryField
{
    hotSide
    {
        type            fixedGradient;
        gradient        nonuniform List<scalar> 
400
(
321.511
322.87
325.591
329.677
335.133
341.965
350.181
359.788
370.794
383.208
397.037
412.289
428.971
447.088
466.647
487.651
510.105
534.011
559.372
586.191
323.738
325.08
327.767
331.802
337.194
343.949
352.078
361.591
372.498
384.81
398.537
413.687
430.268
448.289
467.755
488.672
511.043
534.872
560.161
586.913
326.149
327.47
330.116
334.091
339.406
346.071
354.099
363.503
374.296
386.491
400.101
415.136
431.606
449.52
468.885
489.706
511.988
535.735
560.948
587.63
328.704
330
332.597
336.503
341.73
348.292
356.205
365.485
376.15
388.215
401.695
416.604
432.954
450.753
470.009
490.73
512.919
536.579
561.714
588.325
331.33
332.599
335.142
338.97
344.099
350.546
358.332
367.477
378.003
389.928
403.271
418.047
434.27
451.949
471.095
491.712
513.807
537.382
562.439
588.978
333.918
335.158
337.643
341.389
346.414
352.74
360.392
369.397
379.779
391.562
404.765
419.407
435.503
453.065
472.101
492.618
514.622
538.114
563.096
589.569
336.321
337.531
339.959
343.622
348.544
354.751
362.274
371.142
381.385
393.031
406.101
420.618
436.595
454.047
472.983
493.409
515.33
538.747
563.663
590.076
338.36
339.543
341.92
345.509
350.339
356.44
363.847
372.595
382.718
394.244
407.2
421.608
437.485
454.844
473.695
494.045
515.897
539.253
564.114
590.478
339.852
341.015
343.352
346.885
351.645
357.665
364.985
373.643
383.675
395.113
407.984
422.312
438.116
455.407
474.197
494.491
516.294
539.606
564.428
590.758
340.643
341.795
344.11
347.613
352.334
358.311
365.584
374.193
384.176
395.567
408.393
422.679
438.443
455.699
474.456
494.722
516.498
539.788
564.589
590.901
340.643
341.795
344.11
347.613
352.334
358.311
365.584
374.193
384.176
395.567
408.393
422.679
438.443
455.699
474.456
494.722
516.498
539.788
564.589
590.901
339.852
341.015
343.352
346.885
351.645
357.665
364.985
373.643
383.675
395.113
407.984
422.312
438.116
455.407
474.197
494.491
516.294
539.606
564.428
590.758
338.36
339.543
341.92
345.509
350.339
356.44
363.847
372.595
382.718
394.244
407.2
421.608
437.485
454.844
473.695
494.045
515.897
539.253
564.114
590.478
336.321
337.531
339.959
343.622
348.544
354.751
362.274
371.142
381.385
393.031
406.101
420.618
436.595
454.047
472.983
493.409
515.33
538.747
563.663
590.076
333.918
335.158
337.643
341.389
346.414
352.74
360.392
369.397
379.779
391.562
404.765
419.407
435.503
453.065
472.101
492.618
514.622
538.114
563.096
589.569
331.33
332.599
335.142
338.97
344.099
350.546
358.332
367.477
378.003
389.928
403.271
418.047
434.27
451.949
471.095
491.712
513.807
537.382
562.439
588.978
328.704
330
332.597
336.503
341.73
348.292
356.205
365.485
376.15
388.215
401.695
416.604
432.954
450.753
470.009
490.73
512.919
536.579
561.714
588.325
326.149
327.47
330.116
334.091
339.406
346.071
354.099
363.503
374.296
386.491
400.101
415.136
431.606
449.52
468.885
489.706
511.988
535.735
560.948
587.63
323.738
325.08
327.767
331.802
337.194
343.949
352.078
361.591
372.498
384.81
398.537
413.687
430.268
448.289
467.755
488.672
511.043
534.872
560.161
586.913
321.511
322.87
325.591
329.677
335.133
341.965
350.181
359.788
370.794
383.208
397.037
412.289
428.971
447.088
466.647
487.651
510.105
534.011
559.372
586.191
)
;
    }
    coldSide
    {
        type            mixed;
        refValue        uniform 300;
        refGradient     uniform 0;
        valueFraction   uniform 0.991591;
        source          uniform 0;
        value           nonuniform List<scalar> 
400
(
300.023
300.024
300.025
300.025
300.026
300.026
300.026
300.027
300.027
300.028
300.028
300.029
300.029
300.029
300.029
300.029
300.03
300.029
300.03
300.029
300.024
300.024
300.025
300.025
300.025
300.027
300.027
300.028
300.028
300.029
300.029
300.029
300.029
300.029
300.03
300.03
300.03
300.03
300.029
300.03
300.024