/*--------------------------------*- C++ -*----------------------------------*\
| =========                 |                                                 |
| \\      /  F ield         | OpenFOAM: The Open Source CFD Toolbox           |
|  \\    /   O peration     | Version:  2212                                  |
|   \\  /    A nd           | Website:  www.openfoam.com                      |
|    \\/     M anipulation  |                                                 |
\*---------------------------------------------------------------------------*/
FoamFile
{
    version     2.0;
    format      ascii;
    arch        "LSB;label=32;scalar=64";
    class       volScalarField;
    location    "0";
    object      T;
}
// * * * * * * * * * * * * * * * * * * * * * * * * * * * * * * * * * * * * * //

dimensions      [0 0 0 1 0 0 0];

internalField   nonuniform List<scalar> 
3200
(
358.604
359.407
360.692
361.429
362.242
362.667
362.694
362.996
363.672
363.697
363.622
363.599
363.515
363.453
362.676
361.845
361.182
360.695
359.764
358.787
352.471
353.168
354.241
354.871
355.613
355.949
355.933
356.202
356.831
356.779
356.765
356.782
356.697
356.651
356.008
355.252
354.701
354.302
353.526
352.725
345.681
346.312
347.188
347.669
348.354
348.603
348.634
348.84
349.391
349.275
349.331
349.354
349.27
349.202
348.744
348.072
347.577
347.261
346.666
346.01
338.334
338.916
339.567
339.887
340.547
340.712
340.76
340.91
341.326
341.242
341.326
341.295
341.243
341.19
340.874
340.306
339.867
339.617
339.172
338.647
330.446
330.95
331.357
331.636
332.237
332.299
332.335
332.467
332.819
332.725
332.772
332.777
332.681
332.632
332.44
331.992
331.619
331.482
331.152
330.709
322.083
322.535
322.725
322.923
323.412
323.49
323.474
323.552
323.837
323.756
323.754
323.751
323.683
323.641
323.54
323.237
322.917
322.844
322.658
322.309
313.395
313.717
313.79
313.92
314.247
314.264
314.261
314.301
314.5
314.439
314.434
314.404
314.338
314.321
314.291
314.078
313.896
313.889
313.802
313.575
304.527
304.65
304.643
304.687
304.812
304.805
304.812
304.823
304.889
304.86
304.858
304.833
304.822
304.847
304.822
304.746
304.676
304.699
304.688
304.604
359.573
360.307
361.249
361.911
362.743
363.338
363.655
364.067
364.462
364.476
364.361
364.346
364
363.843
363.349
362.623
361.893
361.234
360.287
359.576
353.335
353.911
354.7
355.229
355.999
356.516
356.754
357.115
357.49
357.481
357.396
357.38
357.046
356.961
356.538
355.879
355.255
354.762
353.936
353.375
346.428
346.943
347.556
347.972
348.68
349.071
349.284
349.591
349.91
349.858
349.792
349.82
349.517
349.494
349.118
348.525
348.032
347.641
346.969
346.473
338.964
339.393
339.861
340.205
340.775
341.094
341.268
341.512
341.716
341.701
341.635
341.699
341.449
341.42
341.14
340.672
340.256
339.995
339.46
338.996
330.962
331.315
331.611
331.891
332.325
332.611
332.703
332.902
333.022
333.064
332.949
333.054
332.864
332.815
332.622
332.292
331.981
331.768
331.357
331.004
322.482
322.772
322.936
323.16
323.472
323.67
323.738
323.893
323.926
323.976
323.862
323.964
323.864
323.814
323.668
323.457
323.243
323.084
322.849
322.534
313.68
313.862
313.933
314.083
314.242
314.375
314.409
314.494
314.521
314.528
314.43
314.541
314.516
314.466
314.36
314.251
314.084
314.022
313.883
313.682
304.602
304.688
304.708
304.762
304.818
304.852
304.855
304.897
304.9
304.891
304.85
304.894
304.896
304.876
304.829
304.8
304.743
304.734
304.662
304.594
360.332
361.355
362.255
362.88
363.522
364.278
364.429
364.987
365.246
365.498
365.316
365.486
365.051
364.909
364.339
363.66
362.946
362.176
361.199
360.474
353.955
354.775
355.555
356.111
356.603
357.282
357.441
357.875
358.102
358.328
358.185
358.307
357.973
357.867
357.346
356.794
356.165
355.53
354.68
354.074
347.005
347.609
348.29
348.806
349.145
349.735
349.836
350.232
350.349
350.577
350.485
350.588
350.317
350.229
349.797
349.337
348.764
348.292
347.557
347.049
339.416
339.936
340.433
340.843
341.117
341.644
341.685
341.971
342.103
342.304
342.253
342.324
342.139
342.015
341.669
341.33
340.864
340.458
339.867
339.419
331.283
331.722
332.047
332.383
332.603
332.98
333.019
333.251
333.346
333.535
333.486
333.507
333.385
333.348
333.053
332.794
332.425
332.138
331.676
331.283
322.691
323.036
323.206
323.496
323.61
323.887
323.971
324.084
324.119
324.309
324.282
324.28
324.211
324.208
323.969
323.827
323.538
323.364
322.992
322.685
313.768
314.019
314.067
314.256
314.305
314.482
314.541
314.609
314.612
314.735
314.712
314.736
314.698
314.69
314.576
314.503
314.303
314.212
313.946
313.77
304.633
304.712
304.746
304.812
304.803
304.873
304.898
304.925
304.92
304.971
304.938
304.941
304.943
304.957
304.935
304.895
304.828
304.791
304.715
304.623
361.288
362.409
362.899
363.942
364.691
365.176
365.669
366.139
366.254
366.497
366.407
366.37
365.874
365.739
365.024
364.657
363.941
363.101
362.146
361.217
354.76
355.713
356.078
356.964
357.59
358.037
358.465
358.846
358.972
359.166
359.102
359.063
358.636
358.547
357.947
357.667
356.989
356.362
355.512
354.756
347.634
348.457
348.674
349.432
349.918
350.326
350.686
350.963
351.1
351.249
351.265
351.236
350.799
350.759
350.296
350.05
349.459
348.995
348.252
347.632
339.956
340.61
340.708
341.343
341.78
342.095
342.343
342.534
342.691
342.808
342.877
342.847
342.482
342.46
342.12
341.889
341.409
341.039
340.481
339.95
331.728
332.21
332.257
332.764
333.103
333.376
333.52
333.667
333.767
333.914
333.968
333.934
333.633
333.69
333.42
333.206
332.873
332.534
332.132
331.709
323.029
323.364
323.413
323.767
323.998
324.196
324.294
324.4
324.466
324.604
324.621
324.612
324.385
324.436
324.255
324.049
323.852
323.609
323.335
323.037
313.965
314.188
314.194
314.419
314.561
314.698
314.769
314.839
314.839
314.919
314.966
314.926
314.791
314.813
314.752
314.563
314.491
314.346
314.173
313.987
304.716
304.801
304.761
304.86
304.913
304.951
304.976
305.008
304.986
305.036
305.071
305.015
304.996
304.996
304.98
304.898
304.89
304.828
304.772
304.726
362.41
363.138
363.908
364.789
365.54
366.014
366.486
366.965
367.124
367.437
367.32
367.23
367.11
366.584
366.198
365.546
364.773
363.994
362.915
362.219
355.742
356.276
356.902
357.75
358.316
358.747
359.148
359.542
359.659
359.937
359.843
359.793
359.712
359.288
358.95
358.385
357.728
357.069
356.122
355.526
348.459
348.874
349.348
350.078
350.514
350.953
351.277
351.578
351.664
351.945
351.863
351.808
351.719
351.429
351.125
350.673
350.098
349.564
348.769
348.273
340.611
340.898
341.238
341.896
342.224
342.589
342.889
343.129
343.182
343.406
343.353
343.284
343.204
343.043
342.751
342.387
341.895
341.487
340.832
340.486
332.253
332.4
332.674
333.182
333.458
333.749
333.967
334.151
334.183
334.365
334.337
334.298
334.203
334.097
333.846
333.574
333.168
332.931
332.382
332.16
323.432
323.514
323.67
324.067
324.258
324.453
324.642
324.738
324.792
324.951
324.874
324.893
324.799
324.769
324.483
324.348
324.043
323.938
323.505
323.344
314.256
314.292
314.349
314.6
314.739
314.782
314.95
315.018
315.016
315.152
315.066
315.071
315.033
315.03
314.8
314.797
314.607
314.548
314.263
314.172
304.804
304.82
304.811
304.922
304.963
304.982
305.03
305.046
305.062
305.101
305.069
305.06
305.072
305.083
304.991
304.989
304.909
304.894
304.813
304.777
363.088
363.938
364.951
365.887
366.37
366.984
367.529
368.024
368.11
368.358
368.323
368.084
367.986
367.407
366.93
366.479
365.61
364.772
363.628
362.727
356.295
357.005
357.857
358.638
359.039
359.568
360.051
360.418
360.515
360.726
360.702
360.497
360.424
359.91
359.515
359.206
358.447
357.713
356.743
356.015
348.908
349.52
350.197
350.817
351.124
351.606
352.026
352.294
352.399
352.559
352.531
352.381
352.302
351.935
351.534
351.296
350.65
350.092
349.251
348.672
340.958
341.465
341.964
342.464
342.729
343.133
343.469
343.632
343.753
343.884
343.848
343.709
343.715
343.387
343.056
342.899
342.286
341.948
341.213
340.775
332.475
332.877
333.213
333.642
333.843
334.136
334.422
334.474
334.612
334.71
334.694
334.582
334.619
334.365
334.105
333.997
333.458
333.195
332.676
332.393
323.551
323.87
324.052
324.38
324.528
324.774
324.948
324.976
325.097
325.107
325.122
325.053
325.103
324.917
324.727
324.644
324.238
324.065
323.682
323.527
314.284
314.492
314.59
314.796
314.867
315.012
315.102
315.126
315.259
315.232
315.238
315.185
315.234
315.104
315
314.938
314.688
314.6
314.372
314.308
304.838
304.891
304.921
304.99
305.01
305.071
305.08
305.083
305.134
305.125
305.148
305.092
305.135
305.104
305.066
305.018
304.935
304.917
304.843
304.815
363.802
364.729
365.898
366.789
367.384
367.887
368.406
368.77
369.104
369.245
369.192
369.055
368.626
368.27
367.557
367.196
366.182
365.577
364.336
363.494
356.837
357.681
358.619
359.427
359.878
360.318
360.719
361.062
361.341
361.5
361.442
361.32
360.956
360.637
360.056
359.793
358.906
358.408
357.323
356.669
349.318
350.039
350.797
351.54
351.866
352.216
352.465
352.812
353.059
353.207
353.14
353.039
352.765
352.445
351.997
351.802
351.089
350.659
349.738
349.241
341.279
341.872
342.42
343.068
343.34
343.577
343.797
344.078
344.257
344.394
344.345
344.243
344.028
343.76
343.386
343.298
342.743
342.311
341.556
341.251
332.703
333.196
333.58
334.112
334.349
334.503
334.673
334.891
334.985
335.108
335.085
334.991
334.853
334.587
334.323
334.288
333.912
333.499
332.905
332.711
323.707
324.036
324.302
324.721
324.901
325.009
325.115
325.288
325.344
325.385
325.415
325.315
325.252
325.025
324.855
324.834
324.601
324.278
323.848
323.71
314.38
314.588
314.771
314.975
315.066
315.169
315.226
315.361
315.363
315.392
315.42
315.35
315.315
315.183
315.04
315.072
314.946
314.704
314.417
314.395
304.851
304.921
304.957
305.043
305.077
305.111
305.129
305.175
305.17
305.187
305.179
305.153
305.167
305.136
305.067
305.068
305.036
304.948
304.855
304.853
364.534
365.612
366.482
367.482
368.14
368.703
369.143
369.499
369.964
369.812
370.007
369.752
369.554
368.982
368.378
368.019
366.882
366.281
365.068
364.403
357.534
358.451
359.109
360.001
360.555
361.019
361.389
361.704
362.109
361.926
362.112
361.943
361.789
361.245
360.725
360.493
359.501
359.016
357.962
357.466
349.958
350.747
351.185
351.984
352.422
352.797
353.072
353.369
353.684
353.542
353.731
353.571
353.449
353.015
352.52
352.385
351.576
351.148
350.263
349.929
341.827
342.423
342.768
343.46
343.773
344.075
344.291
344.478
344.723
344.677
344.8
344.684
344.542
344.21
343.832
343.743
343.087
342.728
341.96
341.812
333.186
333.607
333.864
334.397
334.687
334.91
335.025
335.147
335.361
335.333
335.454
335.366
335.241
334.917
334.664
334.637
334.124
333.849
333.225
333.161
324.094
324.324
324.528
324.931
325.128
325.293
325.376
325.446
325.602
325.582
325.676
325.61
325.509
325.242
325.049
325.113
324.694
324.522
324.051
324.067
314.641
314.724
314.856
315.117
315.229
315.338
315.365
315.429
315.509
315.533
315.573
315.54
315.456
315.31
315.131
315.229
314.958
314.844
314.583
314.615
304.931
304.938
305.021
305.1
305.131
305.154
305.154
305.189
305.22
305.219
305.241
305.221
305.22
305.156
305.076
305.119
305.016
305.02
304.909
304.923
365.217
366.303
367.121
367.959
368.699
369.567
369.952
370.17
370.61
370.582
370.637
370.669
370.315
369.773
369.228
368.801
367.735
366.936
365.649
364.866
358.113
358.996
359.659
360.388
361.014
361.823
362.057
362.215
362.645
362.614
362.686
362.703
362.387
361.892
361.472
361.14
360.214
359.533
358.429
357.836
350.412
351.156
351.684
352.274
352.828
353.478
353.64
353.821
354.132
354.13
354.204
354.238
353.939
353.506
353.169
352.906
352.134
351.561
350.659
350.209
342.131
342.741
343.18
343.604
344.12
344.597
344.746
344.88
345.121
345.146
345.158
345.226
344.93
344.629
344.367
344.177
343.549
343.064
342.355
342.03
333.329
333.825
334.176
334.496
334.88
335.241
335.343
335.469
335.678
335.643
335.663
335.722
335.503
335.271
335.1
334.941
334.492
334.096
333.544
333.33
324.162
324.479
324.759
325.014
325.273
325.48
325.58
325.695
325.79
325.768
325.826
325.851
325.704
325.521
325.414
325.328
325.039
324.697
324.279
324.165
314.675
314.825
315.013
315.148
315.301
315.444
315.495
315.584
315.619
315.604
315.631
315.642
315.597
315.461
315.429
315.378
315.191
314.955
314.75
314.688
304.939
304.989
305.052
305.093
305.146
305.193
305.224
305.254
305.252
305.25
305.263
305.261
305.261
305.207
305.216
305.181
305.13
305.023
304.965
304.974
365.787
366.675
367.74
368.583
369.329
370.238
370.4
370.868
371.405
371.547
371.267
371.301
370.922
370.452
369.943
369.477
368.331
367.612
366.251
365.565
358.587
359.304
360.218
360.91
361.551
362.319
362.452
362.835
363.328
363.475
363.207
363.256
362.899
362.525
362.086
361.687
360.749
360.116
358.89
358.427
350.757
351.388
352.141
352.691
353.247
353.884
354.002
354.249
354.72
354.888
354.605
354.68
354.354
354.048
353.735
353.366
352.564
352.081
351.068
350.699
342.417
342.919
343.513
343.996
344.41
344.938
345.06
345.243
345.602
345.754
345.518
345.592
345.302
345.094
344.817
344.56
343.876
343.548
342.693
342.389
333.596
333.957
334.403
334.849
335.114
335.531
335.608
335.778
336.04
336.158
335.977
336.028
335.809
335.667
335.417
335.245
334.728
334.507
333.833
333.58
324.332
324.574
324.917
325.28
325.468
325.705
325.722
325.899
326.053
326.174
326.038
326.075
325.89
325.829
325.615
325.491
325.125
324.973
324.539
324.325
314.748
314.933
315.118
315.323
315.428
315.561
315.577
315.733
315.769
315.829
315.793
315.818
315.696
315.666
315.506
315.476
315.228
315.121
314.904
314.746
304.969
305.035
305.094
305.151
305.198
305.247
305.254
305.32
305.319
305.324
305.312
305.322
305.279
305.267
305.214
305.208
305.121
305.081
305.033
304.972
366.267
367.195
368.244
369.146
370.217
370.799
371.253
371.645
371.8
372.018
372.017
371.997
371.627
371.222
370.702
370.038
369.131
368.09
366.858
365.912
358.985
359.741
360.586
361.383
362.319
362.796
363.209
363.491
363.638
363.79
363.839
363.813
363.481
363.171
362.744
362.138
361.365
360.536
359.433
358.655
351.091
351.753
352.409
353.103
353.865
354.27
354.623
354.822
354.99
355.131
355.159
355.115
354.837
354.592
354.237
353.762
353.102
352.403
351.494
350.819
342.705
343.225
343.715
344.321
344.884
345.282
345.509
345.679
345.822
345.974
345.98
345.894
345.678
345.52
345.213
344.887
344.287
343.786
343.015
342.483
333.819
334.206
334.56
335.084
335.447
335.796
335.942
336.085
336.193
336.346
336.345
336.236
336.092
336.012
335.748
335.541
335.041
334.691
334.079
333.635
324.525
324.762
325.039
325.396
325.611
325.938
326.006
326.145
326.185
326.281
326.299
326.226
326.119
326.052
325.887
325.749
325.421
325.121
324.679
324.386
314.89
314.99
315.169
315.4
315.497
315.703
315.785
315.836
315.848
315.898
315.928
315.887
315.836
315.779
315.671
315.619
315.412
315.253
314.972
314.793
305.005
305.042
305.074
305.195
305.22
305.277
305.318
305.337
305.32
305.352
305.378
305.337
305.34
305.318
305.283
305.271
305.186
305.149
305.052
304.978
366.55
367.926
368.839
369.622
370.756
371.566
371.696
372.293
372.435
372.508
372.573
372.36
371.975
371.928
371.222
370.48
369.535
368.554
367.487
366.508
359.185
360.372
361.126
361.792
362.788
363.409
363.514
364.068
364.182
364.249
364.3
364.163
363.779
363.816
363.216
362.544
361.732
360.949
360.029
359.201
351.242
352.233
352.873
353.429
354.266
354.793
354.859
355.308
355.457
355.499
355.535
355.428
355.086
355.118
354.656
354.084
353.413
352.773
351.982
351.325
342.808
343.625
344.133
344.604
345.262
345.672
345.714
346.1
346.218
346.273
346.274
346.217
345.909
345.926
345.545
345.096
344.582
344.053
343.423
342.91
333.883
334.494
334.943
335.252
335.79
336.079
336.132
336.426
336.5
336.562
336.55
336.56
336.281
336.292
335.997
335.664
335.214
334.862
334.344
333.947
324.543
324.989
325.293
325.531
325.91
326.114
326.133
326.406
326.364
326.43
326.459
326.5
326.234
326.229
326.053
325.821
325.491
325.249
324.89
324.534
314.887
315.158
315.334
315.495
315.726
315.786
315.828
316
315.976
316.021
316.017
316.08
315.877
315.872
315.771
315.638
315.443
315.289
315.093
314.867
305.028
305.098
305.16
305.207
305.3
305.309
305.332
305.382
305.379
305.387
305.361
305.413
305.333
305.351
305.313
305.275
305.194
305.142
305.078
305.019
366.836
368.236
369.139
369.818
371.105
371.71
372.154
372.584
372.844
372.792
372.939
373.002
372.659
372.33
371.601
370.742
370.075
369.072
367.876
367.21
359.434
360.623
361.372
361.921
363.066
363.539
363.907
364.272
364.557
364.482
364.615
364.696
364.362
364.101
363.498
362.742
362.198
361.415
360.374
359.828
351.488
352.437
353.058
353.522
354.488
354.892
355.175
355.476
355.78
355.688
355.735
355.898
355.59
355.344
354.864
354.214
353.766
353.141
352.299
351.835
343.027
343.759
344.252
344.627
345.44
345.741
345.966
346.221
346.493
346.378
346.397
346.59
346.323
346.091
345.685
345.202
344.814
344.385
343.675
343.313
334.058
334.618
335.008
335.284
335.909
336.153
336.319
336.499
336.728
336.653
336.635
336.799
336.584
336.385
336.083
335.732
335.384
335.106
334.533
334.292
324.688
325.048
325.34
325.532
325.98
326.148
326.289
326.394
326.58
326.553
326.473
326.602
326.469
326.344
326.082
325.873
325.598
325.411
324.988
324.825
314.98
315.158
315.364
315.465
315.706
315.84
315.922
316.017
316.101
316.12
316.022
316.132
316.034
316.025
315.803
315.689
315.512
315.403
315.137
315.053
305.051
305.106
305.181
305.217
305.273
305.345
305.359
305.422
305.395
305.416
305.382
305.432
305.386
305.419
305.314
305.28
305.243
305.185
305.096
305.093
367.311
368.562
369.463
370.398
371.29
372.067
372.707
372.968
373.073
373.233
373.379
373.08
372.97
372.464
371.696
371.121
370.308
369.628
368.431
367.405
359.804
360.893
361.687
362.435
363.192
363.861
364.44
364.632
364.742
364.842
364.989
364.713
364.64
364.233
363.57
363.09
362.421
361.836
360.81
360.001
351.803
352.691
353.393
353.932
354.639
355.173
355.718
355.782
355.907
355.923
356.085
355.886
355.798
355.448
354.922
354.505
353.98
353.484
352.685
351.985
343.289
343.959
344.546
344.959
345.557
345.968
346.417
346.481
346.607
346.587
346.76
346.586
346.477
346.186
345.798
345.463
345.037
344.658
344.059
343.475
334.295
334.774
335.263
335.534
336.006
336.314
336.704
336.677
336.84
336.779
336.934
336.822
336.742
336.503
336.202
335.97
335.6
335.338
334.886
334.434
324.887
325.194
325.502
325.72
326.054
326.244
326.578
326.537
326.665
326.577
326.709
326.657
326.566
326.416
326.203
326.064
325.774
325.561
325.298
324.944
315.105
315.279
315.429
315.573
315.775
315.859
316.116
316.093
316.165
316.088
316.189
316.169
316.084
316.028
315.871
315.824
315.621
315.496
315.358
315.132
305.086
305.16
305.198
305.254
305.319
305.327
305.425
305.414
305.456
305.43
305.459
305.43
305.407
305.394
305.357
305.347
305.276
305.228
305.183
305.089
367.473
368.812
369.835
370.891
371.648
372.229
372.841
373.148
373.422
373.655
373.498
373.304
373.186
372.784
372.056
371.49
370.67
369.605
368.572
367.561
360.034
361.1
361.947
362.888
363.507
364.053
364.499
364.736
365.005
365.195
365.123
364.902
364.816
364.478
363.873
363.367
362.689
361.824
360.971
360.115
352.059
352.835
353.581
354.303
354.856
355.309
355.692
355.856
356.074
356.154
356.23
356.002
355.948
355.673
355.212
354.76
354.214
353.492
352.816
352.047
343.494
344.075
344.73
345.247
345.71
346.105
346.419
346.476
346.682
346.686
346.871
346.648
346.573
346.41
346.035
345.624
345.227
344.688
344.153
343.455
334.425
334.864
335.397
335.729
336.173
336.403
336.698
336.635
336.862
336.819
337.044
336.812
336.761
336.642
336.382
336.064
335.759
335.343
334.979
334.399
324.957
325.241
325.602
325.792
326.193
326.319
326.576
326.47
326.681
326.577
326.793
326.572
326.556
326.481
326.349
326.086
325.888
325.552
325.324
324.917
315.165
315.285
315.518
315.602
315.859
315.932
316.092
316.027
316.193
316.081
316.215
316.043
316.083
316.057
315.983
315.795
315.686
315.469
315.362
315.092
305.101
305.166
305.243
305.243
305.337
305.363
305.435
305.405
305.464
305.418
305.456
305.415
305.404
305.396
305.389
305.33
305.278
305.197
305.206
305.09
367.619
368.979
370.108
371.032
371.824
372.369
373.033
373.462
373.826
373.81
374.007
373.743
373.251
373.022
372.446
371.585
370.785
369.648
368.77
367.528
360.131
361.278
362.21
362.98
363.642
364.089
364.673
365.072
365.377
365.331
365.565
365.289
364.894
364.733
364.219
363.503
362.819
361.779
361.12
360.077
352.145
353.001
353.786
354.413
354.951
355.347
355.809
356.173
356.423
356.369
356.57
356.265
356
355.879
355.478
354.846
354.322
353.455
352.937
352.099
343.592
344.254
344.828
345.352
345.818
346.121
346.443
346.738
346.989
346.941
347.082
346.825
346.572
346.517
346.249
345.69
345.31
344.632
344.22
343.568
334.506
335.014
335.404
335.83
336.237
336.428
336.664
336.889
337.124
337.095
337.168
336.922
336.75
336.731
336.555
336.099
335.819
335.338
335.038
334.532
325.01
325.321
325.614
325.881
326.234
326.375
326.501
326.678
326.857
326.771
326.886
326.65
326.589
326.585
326.414
326.147
325.89
325.606
325.4
325.028
315.164
315.385
315.524
315.657
315.917
315.984
316.067
316.179
316.247
316.165
316.305
316.09
316.107
316.054
315.995
315.834
315.676
315.539
315.417
315.177
305.114
305.19
305.226
305.265
305.358
305.377
305.413
305.429
305.466
305.419
305.51
305.413
305.408
305.413
305.381
305.331
305.284
305.247
305.189
305.114
367.869
368.895
369.98
371.052
371.992
372.721
373.205
373.589
374.059
374.032
373.97
373.68
373.481
372.95
372.469
371.821
370.818
370.037
368.773
367.838
360.334
361.176
362.125
362.979
363.783
364.392
364.849
365.185
365.59
365.512
365.504
365.22
365.068
364.589
364.216
363.652
362.778
362.177
361.094
360.351
352.255
352.928
353.741
354.4
355.086
355.593
355.972
356.289
356.59
356.52
356.51
356.271
356.143
355.746
355.459
354.923
354.28
353.77
352.873
352.27
343.647
344.193
344.785
345.337
345.909
346.292
346.618
346.913
347.122
347.08
347.056
346.799
346.715
346.448
346.169
345.712
345.274
344.851
344.14
343.64
334.543
334.979
335.39
335.816
336.262
336.546
336.818
337.043
337.192
337.171
337.185
336.926
336.915
336.644
336.449
336.067
335.819
335.481
334.925
334.566
324.995
325.305
325.566
325.899
326.179
326.464
326.613
326.736
326.899
326.885
326.855
326.697
326.697
326.493
326.365
326.058
325.915
325.703
325.304
324.999
315.129
315.336
315.464
315.72
315.847
316.059
316.087
316.195
316.286
316.264
316.242
316.169
316.15
316.017
315.945
315.776
315.73
315.563
315.332
315.14
305.091
305.172
305.223
305.295
305.337
305.411
305.422
305.464
305.482
305.459
305.453
305.431
305.454
305.389
305.375
305.314
305.305
305.246
305.18
305.095
367.984
368.703
369.912
371.002
371.936
372.534
373.156
373.721
374.09
374.131
374.29
374.162
373.541
372.873
372.283
371.657
370.725
369.942
368.817
367.937
360.437
360.956
362.042
362.985
363.738
364.281
364.836
365.268
365.602
365.636
365.774
365.692
365.162
364.533
364.05
363.51
362.744
362.055
361.195
360.462
352.343
352.75
353.649
354.468
355.056
355.483
355.981
356.307
356.609
356.735
356.743
356.703
356.248
355.691
355.293
354.876
354.205
353.699
353
352.373
343.704
344.092
344.77
345.395
345.89
346.21
346.612
346.847
347.115
347.288
347.244
347.232
346.827
346.371
346.072
345.714
345.188
344.822
344.294
343.71
334.599
334.881
335.391
335.875
336.254
336.51
336.84
336.967
337.196
337.299
337.262
337.269
336.971
336.584
336.376
336.148
335.711
335.443
335.06
334.58
325.053
325.223
325.598
325.975
326.237
326.413
326.633
326.715
326.885
326.963
326.934
326.942
326.707
326.461
326.276
326.148
325.859
325.625
325.385
325.074
315.184
315.292
315.494
315.767
315.903
315.987
316.163
316.177
316.286
316.326
316.313
316.307
316.171
316.045
315.908
315.851
315.663
315.529
315.407
315.219
305.14
305.15
305.206
305.301
305.352
305.394
305.448
305.445
305.47
305.482
305.503
305.481
305.442
305.423
305.351
305.35
305.263
305.228
305.186
305.123
367.932
368.833
370.212
371.142
372.099
372.683
373.43
373.773
374.271
374.179
374.071
374.087
373.744
373.043
372.274
371.66
370.742
369.914
368.683
367.946
360.377
361.09
362.291
363.116
363.876
364.416
365.005
365.327
365.773
365.697
365.549
365.62
365.337
364.7
364.035
363.543
362.773
362.066
361.008
360.43
352.244
352.81
353.784
354.518
355.199
355.604
356.101
356.398
356.769
356.742
356.571
356.646
356.39
355.841
355.285
354.901
354.259
353.684
352.785
352.325
343.618
344.126
344.822
345.406
345.993
346.317
346.697
346.958
347.238
347.231
347.12
347.208
346.986
346.489
346.005
345.741
345.258
344.806
344.078
343.688
334.509
334.934
335.413
335.855
336.335
336.618
336.88
337.091
337.287
337.261
337.242
337.325
337.135
336.681
336.266
336.138
335.807
335.438
334.89
334.554
325.012
325.291
325.61
325.931
326.271
326.488
326.624
326.78
326.904
326.932
326.927
326.999
326.9
326.52
326.195
326.196
325.943
325.639
325.259
325.027
315.154
315.361
315.505
315.739
315.901
316.036
316.104
316.233
316.242
316.299
316.316
316.369
316.303
316.059
315.874
315.875
315.719
315.555
315.287
315.173
305.092
305.176
305.221
305.296
305.338
305.418
305.425
305.464
305.461
305.488
305.504
305.51
305.468
305.391
305.349
305.347
305.299
305.249
305.156
305.111
367.813
368.77
369.914
371.063
372.076
373.128
373.35
373.627
374.056
374.153
374.189
373.923
373.728
373.321
372.448
371.5
370.776
369.812
368.64
367.709
360.272
361.076
362.047
363.081
363.965
364.795
364.998
365.217
365.585
365.652
365.694
365.439
365.251
364.931
364.183
363.363
362.783
361.932
360.921
360.199
352.191
352.81
353.644
354.601
355.275
355.937
356.141
356.295
356.615
356.594
356.688
356.462
356.261
356.061
355.402
354.794
354.257
353.531
352.69
352.155
343.541
344.067
344.782
345.549
346.061
346.59
346.78
346.871
347.132
347.139
347.21
347.073
346.85
346.735
346.131
345.652
345.217
344.658
343.949
343.578
334.422
334.855
335.403
336.004
336.37
336.759
336.95
336.984
337.189
337.228
337.284
337.216
336.993
336.923
336.428
336.06
335.718
335.324
334.818
334.502
324.948
325.241
325.615
326.06
326.294
326.548
326.721
326.74
326.844
326.934
326.966
326.956
326.748
326.761
326.354
326.077
325.869
325.614
325.266
325.015
315.11
315.298
315.572
315.804
315.903
316.065
316.189
316.173
316.239
316.35
316.313
316.344
316.178
316.236
315.956
315.8
315.667
315.543
315.348
315.171
305.099
305.166
305.281
305.329
305.357
305.401
305.459
305.431
305.462
305.512
305.488
305.485
305.444
305.484
305.369
305.297
305.286
305.235
305.176
305.101
)
;

boundaryField
{
    hotSide
    {
        type            fixedGradient;
        gradient        nonuniform List<scalar> 
400
(
439.758
452.137
464.089
475.562
486.503
496.861
506.587
515.633
523.955
531.512
538.264
544.177
549.22
553.365
556.591
558.879
560.217
560.594
560.009
558.462
451.767
464.503
476.801
488.608
499.869
510.532
520.546
529.862
538.435
546.222
553.183
559.282
564.487
568.77
572.108
574.482
575.879
576.289
575.709
574.141
462.584
475.642
488.253
500.362
511.913
522.852
533.127
542.688
551.489
559.486
566.636
572.904
578.257
582.666
586.106
588.56
590.011
590.453
589.88
588.293
472.138
485.482
498.371
510.747
522.555
533.739
544.247
554.027
563.03
571.213
578.533
584.952
590.437
594.958
598.491
601.015
602.518
602.988
602.422
600.821
480.37
493.961
507.09
519.699
531.729
543.126
553.835
563.804
572.983
581.328
588.795
595.346
600.946
605.565
609.179
611.767
613.314
613.81
613.252
611.64
487.231
501.029
514.359
527.162
539.379
550.954
561.832
571.959
581.287
589.767
597.358
604.02
609.717
614.42
618.103
620.744
622.33
622.849
622.298
620.678
492.682
506.645
520.135
533.093
545.46
557.177
568.19
578.445
587.891
596.481
604.171
610.922
616.698
621.468
625.206
627.892
629.509
630.048
629.505
627.879
496.694
510.778
524.388
537.461
549.938
561.761
572.874
583.223
592.757
601.429
609.194
616.012
621.847
626.667
630.448
633.167
634.809
635.364
634.827
633.199
499.245
513.408
527.094
540.241
552.789
564.681
575.859
586.269
595.861
604.586
612.399
619.261
625.135
629.989
633.798
636.54
638.2
638.766
638.234
636.605
500.326
514.524
528.243
541.422
554.002
565.924
577.131
587.569
597.187
605.936
613.772
620.654
626.546
631.417
635.24
637.994
639.663
640.236
639.709
638.082
499.934
514.121
527.831
541.001
553.573
565.487
576.687
587.119
596.731
605.475
613.307
620.187
626.077
630.947
634.769
637.524
639.194
639.769
639.245
637.623
498.076
512.208
525.865
538.985
551.508
563.377
574.534
584.925
594.501
603.211
611.013
617.866
623.734
628.585
632.393
635.137
636.8
637.373
636.851
635.235
494.765
508.799
522.361
535.389
547.825
559.61
570.688
581.006
590.514
599.162
606.908
613.711
619.536
624.351
628.13
630.852
632.501
633.067
632.546
630.937
490.025
503.918
517.343
530.239
542.548
554.213
565.178
575.39
584.798
593.356
601.021
607.751
613.513
618.275
622.011
624.7
626.327
626.882
626.36
624.762
483.886
497.596
510.843
523.568
535.713
547.222
558.039
568.112
577.393
585.833
593.391
600.027
605.706
610.399
614.078
616.725
618.322
618.862
618.338
616.752
476.387
489.874
502.904
515.42
527.365
538.682
549.319
559.223
568.347
576.643
584.071
590.591
596.169
600.776
604.386
606.979
608.541
609.061
608.534
606.963
467.578
480.802
493.578
505.848
517.557
528.65
539.075
548.78
557.719
565.847
573.121
579.505
584.965
589.471
593
595.531
597.049
597.546
597.017
595.463
457.513
470.438
482.923
494.913
506.353
517.191
527.374
536.853
545.581
553.516
560.616
566.844
572.169
576.561
579.996
582.456
583.926
584.397
583.864
582.33
446.258
458.848
471.009
482.687
493.828
504.38
514.293
523.519
532.014
539.733
546.639
552.694
557.868
562.133
565.465
567.846
569.261
569.703
569.168
567.655
433.887
446.11
457.916
469.251
480.063
490.302
499.92
508.87
517.108
524.592
531.284
537.151
542.16
546.286
549.505
551.8
553.157
553.568
553.029
551.542
)
;
    }
    coldSide
    {
        type            mixed;
        refValue        uniform 300;
        refGradient     uniform 0;
        valueFraction   uniform 0.991591;
        source          uniform 0;
        value           nonuniform List<scalar> 
400
(
300.038
300.039
300.039
300.04
300.04
300.041
300.041
300.041
300.042
300.042
300.042
300.042
300.042
300.043
300.043
300.043
300.043
300.043
300.043
300.043
300.039
300.039
300.04
300.04
300.041
300.041
300.041
300.042
300.042
300.042
300.042
300.043
300.043
300.043
300.043
300.044
300.043
300.043
300.044
300.043