/*--------------------------------*- C++ -*----------------------------------*\
| =========                 |                                                 |
| \\      /  F ield         | OpenFOAM: The Open Source CFD Toolbox           |
|  \\    /   O peration     | Version:  2212                                  |
|   \\  /    A nd           | Website:  www.openfoam.com                      |
|    \\/     M anipulation  |                                                 |
\*---------------------------------------------------------------------------*/
FoamFile
{
    version     2.0;
    format      ascii;
    arch        "LSB;label=32;scalar=64";
    class       volScalarField;
    location    "0";
    object      T;
}
// * * * * * * * * * * * * * * * * * * * * * * * * * * * * * * * * * * * * * //

dimensions      [0 0 0 1 0 0 0];

internalField   nonuniform List<scalar> 
3200
(
340.283
338.982
338.264
338.14
338.554
339.272
340.224
341.099
341.744
342.332
342.726
342.534
341.986
341.492
340.827
340.395
339.962
340.018
340.676
341.618
335.084
334
333.363
333.23
333.61
334.231
335.055
335.782
336.344
336.864
337.221
337.032
336.569
336.115
335.552
335.176
334.804
334.878
335.421
336.191
329.803
328.962
328.38
328.264
328.575
329.103
329.804
330.413
330.866
331.328
331.649
331.445
331.081
330.67
330.219
329.888
329.585
329.656
330.108
330.731
324.498
323.814
323.329
323.23
323.465
323.927
324.487
324.953
325.347
325.725
326.009
325.806
325.537
325.175
324.821
324.51
324.315
324.354
324.727
325.226
319.122
318.589
318.187
318.129
318.308
318.68
319.104
319.46
319.777
320.048
320.316
320.112
319.9
319.622
319.369
319.095
318.971
319.004
319.275
319.659
313.68
313.323
313.038
312.969
313.101
313.406
313.697
313.954
314.166
314.346
314.567
314.392
314.247
314.052
313.872
313.658
313.591
313.611
313.822
314.051
308.215
308.009
307.841
307.797
307.88
308.063
308.243
308.409
308.526
308.64
308.773
308.663
308.567
308.449
308.346
308.215
308.198
308.186
308.324
308.45
302.753
302.683
302.636
302.616
302.643
302.701
302.77
302.825
302.854
302.902
302.939
302.902
302.873
302.835
302.806
302.76
302.742
302.747
302.792
302.83
340.597
339.338
338.581
338.475
338.917
339.761
340.672
341.672
342.344
343.01
343.369
343.14
342.655
342.165
341.419
340.822
340.456
340.459
341.108
342.003
335.354
334.315
333.649
333.528
333.901
334.61
335.42
336.261
336.843
337.431
337.734
337.537
337.102
336.69
336.063
335.53
335.245
335.246
335.822
336.527
330.038
329.193
328.625
328.531
328.817
329.431
330.099
330.772
331.287
331.788
332.03
331.883
331.485
331.16
330.614
330.166
329.977
329.956
330.439
330.999
324.682
323.989
323.528
323.458
323.686
324.175
324.704
325.253
325.681
326.082
326.305
326.163
325.831
325.59
325.121
324.76
324.621
324.603
324.992
325.436
319.264
318.711
318.354
318.306
318.498
318.855
319.27
319.699
320.041
320.34
320.517
320.399
320.113
319.952
319.6
319.325
319.216
319.197
319.483
319.846
313.801
313.385
313.119
313.122
313.241
313.48
313.808
314.116
314.353
314.57
314.696
314.61
314.408
314.291
314.042
313.842
313.771
313.746
313.954
314.217
308.313
308.047
307.87
307.904
307.96
308.099
308.308
308.507
308.64
308.768
308.844
308.787
308.663
308.575
308.449
308.321
308.275
308.28
308.401
308.55
302.798
302.702
302.644
302.656
302.679
302.713
302.785
302.859
302.909
302.94
302.968
302.942
302.906
302.876
302.838
302.798
302.779
302.77
302.82
302.862
340.986
340.009
339.21
339.134
339.748
340.563
341.575
342.582
343.311
344.024
344.354
344.356
343.862
343.15
342.296
341.563
341.046
341.098
341.751
342.623
335.671
334.874
334.191
334.092
334.622
335.3
336.176
337.057
337.652
338.282
338.554
338.6
338.108
337.525
336.817
336.155
335.712
335.792
336.32
337.066
330.297
329.67
329.076
328.994
329.445
329.999
330.734
331.448
331.947
332.485
332.718
332.761
332.338
331.843
331.244
330.688
330.341
330.397
330.848
331.458
324.887
324.375
323.907
323.848
324.18
324.654
325.223
325.796
326.204
326.645
326.837
326.877
326.515
326.107
325.629
325.17
324.92
324.949
325.352
325.805
319.408
319.039
318.692
318.635
318.865
319.232
319.649
320.095
320.411
320.755
320.891
320.952
320.641
320.364
319.969
319.639
319.456
319.46
319.786
320.13
313.882
313.655
313.416
313.354
313.519
313.772
314.054
314.369
314.588
314.836
314.938
315.006
314.766
314.589
314.299
314.061
313.937
313.945
314.186
314.414
308.353
308.234
308.074
308.048
308.15
308.286
308.452
308.63
308.757
308.916
308.964
309.033
308.868
308.778
308.591
308.461
308.399
308.403
308.525
308.683
302.798
302.765
302.711
302.705
302.735
302.785
302.838
302.894
302.929
302.982
302.999
303.036
302.967
302.945
302.87
302.84
302.817
302.818
302.86
302.915
341.788
340.782
340.209
340.15
340.707
341.6
342.679
343.76
344.645
345.313
345.687
345.613
345.143
344.384
343.455
342.685
342.201
342.171
342.715
343.659
336.366
335.55
335.06
334.97
335.435
336.213
337.128
338.049
338.822
339.381
339.701
339.648
339.242
338.593
337.804
337.109
336.709
336.712
337.158
337.963
330.888
330.24
329.82
329.713
330.102
330.78
331.523
332.311
332.934
333.428
333.684
333.651
333.288
332.754
332.092
331.497
331.178
331.18
331.542
332.207
325.354
324.849
324.519
324.417
324.729
325.28
325.861
326.505
327.031
327.438
327.623
327.589
327.294
326.874
326.333
325.84
325.598
325.596
325.88
326.436
319.766
319.392
319.162
319.071
319.298
319.721
320.157
320.64
321.066
321.403
321.51
321.494
321.274
320.945
320.544
320.159
319.968
319.988
320.17
320.601
314.162
313.894
313.759
313.668
313.811
314.139
314.427
314.778
315.071
315.314
315.39
315.38
315.214
314.987
314.715
314.428
314.289
314.326
314.45
314.734
308.525
308.364
308.299
308.227
308.322
308.503
308.664
308.892
309.063
309.219
309.231
309.236
309.129
309.015
308.851
308.696
308.604
308.615
308.693
308.874
302.859
302.804
302.784
302.763
302.798
302.853
302.9
302.981
303.031
303.092
303.09
303.105
303.057
303.031
302.96
302.911
302.888
302.891
302.909
302.981
342.9
342.031
341.477
341.365
341.973
342.882
343.908
345.065
346.009
346.743
347.154
347.107
346.56
345.789
344.819
344.055
343.406
343.379
343.977
344.94
337.302
336.623
336.141
336.048
336.531
337.318
338.204
339.185
339.988
340.654
340.975
340.916
340.46
339.803
338.978
338.304
337.767
337.741
338.275
339.083
331.652
331.153
330.74
330.654
331.035
331.705
332.442
333.275
333.92
334.519
334.756
334.694
334.304
333.796
333.056
332.507
332.07
332.078
332.52
333.187
325.964
325.626
325.264
325.187
325.473
325.998
326.633
327.308
327.807
328.331
328.498
328.44
328.115
327.705
327.12
326.678
326.326
326.359
326.715
327.251
320.263
320.019
319.71
319.67
319.869
320.26
320.795
321.299
321.651
322.07
322.187
322.18
321.905
321.598
321.122
320.798
320.528
320.557
320.838
321.262
314.51
314.358
314.143
314.091
314.238
314.514
314.911
315.257
315.489
315.801
315.862
315.886
315.674
315.476
315.11
314.889
314.689
314.713
314.937
315.231
308.717
308.646
308.536
308.466
308.583
308.741
308.961
309.194
309.306
309.505
309.537
309.54
309.415
309.308
309.096
308.962
308.839
308.841
308.988
309.143
302.918
302.905
302.866
302.835
302.876
302.931
303.003
303.093
303.109
303.184
303.195
303.2
303.155
303.118
303.065
303.002
302.973
302.96
303.018
303.07
344.402
343.456
342.924
342.794
343.429
344.237
345.481
346.6
347.55
348.223
348.763
348.772
348.176
347.387
346.432
345.604
344.987
344.887
345.317
346.187
338.634
337.841
337.396
337.257
337.809
338.489
339.548
340.512
341.321
341.896
342.361
342.361
341.836
341.175
340.374
339.645
339.122
339.048
339.425
340.128
332.811
332.167
331.8
331.664
332.089
332.674
333.553
334.364
335.062
335.54
335.912
335.902
335.486
334.898
334.257
333.644
333.217
333.135
333.477
334.049
326.951
326.425
326.123
325.992
326.333
326.779
327.511
328.194
328.744
329.149
329.427
329.421
329.082
328.626
328.085
327.594
327.277
327.187
327.485
327.944
321.027
320.629
320.38
320.279
320.552
320.862
321.452
321.98
322.395
322.732
322.93
322.939
322.67
322.316
321.884
321.493
321.272
321.203
321.431
321.79
315.063
314.788
314.607
314.516
314.72
314.932
315.364
315.724
316.014
316.255
316.414
316.425
316.222
315.978
315.651
315.373
315.219
315.179
315.339
315.619
309.073
308.921
308.801
308.722
308.855
308.979
309.256
309.452
309.638
309.769
309.869
309.856
309.757
309.611
309.408
309.256
309.148
309.127
309.215
309.39
303.04
302.983
302.956
302.911
302.969
303.008
303.112
303.169
303.235
303.278
303.3
303.298
303.269
303.215
303.147
303.108
303.07
303.063
303.089
303.163
346
345.047
344.417
344.452
345.055
345.814
346.993
348.24
349.098
350.054
350.482
350.347
349.833
349.059
348.143
347.234
346.602
346.485
346.876
347.716
340.024
339.234
338.659
338.667
339.203
339.836
340.87
341.934
342.677
343.48
343.844
343.732
343.284
342.617
341.849
341.065
340.505
340.412
340.749
341.459
333.993
333.338
332.841
332.852
333.291
333.814
334.686
335.564
336.196
336.864
337.176
337.075
336.697
336.144
335.506
334.852
334.378
334.284
334.591
335.159
327.911
327.379
326.956
326.997
327.327
327.753
328.473
329.166
329.702
330.219
330.468
330.391
330.071
329.635
329.134
328.594
328.187
328.115
328.37
328.846
321.785
321.349
321.038
321.084
321.307
321.651
322.212
322.73
323.171
323.561
323.737
323.682
323.413
323.099
322.717
322.275
321.957
321.914
322.137
322.499
315.594
315.288
315.055
315.105
315.25
315.5
315.916
316.259
316.569
316.87
316.978
316.937
316.73
316.525
316.249
315.927
315.711
315.668
315.84
316.117
309.393
309.191
309.057
309.083
309.178
309.323
309.583
309.787
309.949
310.145
310.196
310.172
310.062
309.945
309.745
309.584
309.456
309.412
309.533
309.697
303.152
303.085
303.039
303.05
303.076
303.123
303.222
303.291
303.34
303.398
303.418
303.41
303.371
303.339
303.266
303.208
303.178
303.152
303.19
303.241
347.605
346.805
346.203
346.132
346.716
347.612
348.713
349.767
350.691
351.593
352.157
352.115
351.57
350.721
349.922
348.838
348.325
348.255
348.631
349.288
341.399
340.741
340.208
340.155
340.646
341.414
342.354
343.258
344.031
344.793
345.31
345.246
344.787
344.067
343.369
342.441
342.005
341.935
342.284
342.816
335.148
334.613
334.163
334.116
334.527
335.147
335.931
336.702
337.334
337.987
338.426
338.356
337.983
337.359
336.784
336.011
335.637
335.565
335.877
336.298
328.836
328.402
328.051
328.022
328.33
328.837
329.484
330.093
330.637
331.142
331.502
331.442
331.144
330.602
330.17
329.536
329.23
329.153
329.425
329.741
322.487
322.155
321.887
321.87
322.097
322.488
322.993
323.471
323.897
324.281
324.539
324.498
324.273
323.827
323.523
323.026
322.783
322.717
322.935
323.142
316.095
315.862
315.679
315.676
315.838
316.102
316.458
316.806
317.112
317.398
317.554
317.52
317.378
317.041
316.853
316.481
316.323
316.236
316.411
316.535
309.689
309.544
309.435
309.426
309.531
309.668
309.884
310.114
310.288
310.47
310.557
310.548
310.451
310.234
310.14
309.897
309.828
309.762
309.866
309.926
303.252
303.208
303.169
303.164
303.198
303.232
303.322
303.384
303.463
303.519
303.541
303.541
303.518
303.427
303.405
303.322
303.287
303.275
303.315
303.312
349.471
348.545
348.028
348.01
348.541
349.224
350.301
351.354
352.39
353.307
353.84
353.705
353.23
352.526
351.642
350.708
350.181
350.012
350.432
351.08
343.008
342.239
341.776
341.749
342.246
342.782
343.719
344.656
345.495
346.28
346.768
346.597
346.202
345.624
344.878
344.046
343.618
343.458
343.843
344.377
336.487
335.864
335.487
335.446
335.887
336.311
337.111
337.89
338.572
339.228
339.64
339.461
339.181
338.692
338.067
337.354
337.005
336.86
337.207
337.627
329.935
329.415
329.127
329.085
329.455
329.787
330.442
331.063
331.629
332.147
332.511
332.335
332.115
331.715
331.236
330.614
330.337
330.22
330.529
330.847
323.353
322.925
322.696
322.669
322.968
323.222
323.735
324.212
324.67
325.038
325.334
325.2
325.034
324.693
324.364
323.866
323.652
323.544
323.784
324.032
316.726
316.413
316.245
316.223
316.447
316.639
317.004
317.308
317.661
317.902
318.112
318.031
317.924
317.644
317.433
317.089
316.937
316.852
317.031
317.176
310.054
309.868
309.781
309.75
309.875
310.01
310.231
310.402
310.609
310.779
310.874
310.838
310.793
310.609
310.472
310.266
310.194
310.131
310.224
310.301
303.365
303.314
303.287
303.274
303.309
303.363
303.433
303.471
303.548
303.621
303.654
303.636
303.625
303.557
303.514
303.429
303.423
303.398
303.43
303.45
351.147
350.429
349.943
350.048
350.29
350.963
351.972
353.005
354.041
354.966
355.39
355.437
355.039
354.174
353.251
352.533
351.937
351.943
352.294
352.876
344.435
343.865
343.437
343.545
343.745
344.293
345.173
346.064
346.926
347.732
348.108
348.137
347.774
347.061
346.259
345.659
345.149
345.154
345.453
345.917
337.674
337.234
336.873
336.976
337.13
337.563
338.32
339.074
339.803
340.465
340.794
340.8
340.472
339.908
339.24
338.732
338.304
338.301
338.56
338.926
330.868
330.535
330.268
330.346
330.468
330.807
331.43
332.02
332.632
333.155
333.453
333.443
333.153
332.72
332.198
331.718
331.418
331.41
331.618
331.898
324.059
323.793
323.631
323.671
323.757
324.022
324.481
324.943
325.417
325.821
326.067
326.047
325.803
325.476
325.118
324.715
324.462
324.47
324.641
324.838
317.236
317.024
316.94
316.945
317.016
317.194
317.508
317.837
318.192
318.468
318.65
318.619
318.441
318.252
317.996
317.666
317.486
317.518
317.623
317.762
310.355
310.246
310.198
310.183
310.255
310.333
310.515
310.72
310.933
311.089
311.208
311.19
311.074
310.971
310.819
310.619
310.513
310.545
310.596
310.689
303.472
303.433
303.42
303.416
303.442
303.466
303.529
303.592
303.667
303.723
303.752
303.755
303.711
303.68
303.628
303.569
303.526
303.535
303.545
303.589
352.985
352.354
351.847
351.915
352.083
352.794
353.648
354.655
355.568
356.553
356.908
356.964
356.621
355.806
354.947
354.318
353.877
353.735
354.113
354.687
346.05
345.55
345.118
345.136
345.276
345.902
346.629
347.495
348.249
349.112
349.4
349.468
349.128
348.469
347.731
347.191
346.795
346.684
347.027
347.493
339.063
338.661
338.301
338.311
338.416
338.938
339.567
340.301
340.928
341.654
341.89
341.934
341.62
341.096
340.476
340.007
339.671
339.57
339.891
340.276
332.016
331.732
331.425
331.432
331.53
331.934
332.46
333.065
333.564
334.159
334.38
334.357
334.104
333.692
333.172
332.771
332.509
332.443
332.715
333.013
324.941
324.756
324.507
324.534
324.587
324.897
325.304
325.79
326.158
326.62
326.809
326.754
326.564
326.267
325.848
325.519
325.324
325.295
325.469
325.716
317.858
317.727
317.542
317.58
317.615
317.825
318.102
318.452
318.705
319.046
319.209
319.116
319.005
318.8
318.526
318.274
318.127
318.11
318.211
318.399
310.719
310.659
310.537
310.583
310.604
310.718
310.883
311.095
311.24
311.444
311.572
311.471
311.419
311.297
311.153
310.97
310.897
310.879
310.93
311.063
303.598
303.579
303.519
303.563
303.556
303.595
303.647
303.716
303.782
303.83
303.889
303.837
303.823
303.779
303.738
303.665
303.652
303.641
303.659
303.708
354.862
354.232
353.811
353.789
353.921
354.6
355.518
356.317
357.208
358.007
358.349
358.428
358.134
357.444
356.709
355.972
355.755
355.62
355.932
356.614
347.651
347.164
346.792
346.784
346.886
347.44
348.208
348.922
349.686
350.363
350.65
350.726
350.503
349.901
349.26
348.62
348.428
348.344
348.619
349.175
340.411
340.024
339.724
339.684
339.789
340.23
340.866
341.491
342.128
342.681
342.931
343.008
342.819
342.315
341.763
341.238
341.038
340.991
341.268
341.691
333.143
332.823
332.603
332.523
332.637
332.992
333.5
334.044
334.527
334.978
335.194
335.261
335.105
334.684
334.214
333.799
333.634
333.588
333.837
334.189
325.814
325.582
325.431
325.348
325.453
325.722
326.117
326.547
326.905
327.248
327.441
327.465
327.345
326.995
326.613
326.327
326.198
326.166
326.37
326.631
318.456
318.299
318.216
318.146
318.234
318.408
318.687
318.998
319.231
319.484
319.647
319.67
319.565
319.29
319.03
318.827
318.74
318.711
318.878
319.053
311.102
311.01
310.962
310.924
310.981
311.077
311.237
311.421
311.563
311.721
311.833
311.839
311.765
311.578
311.44
311.298
311.265
311.249
311.352
311.46
303.724
303.698
303.672
303.667
303.685
303.722
303.767
303.836
303.871
303.931
303.978
303.98
303.939
303.875
303.839
303.782
303.777
303.769
303.816
303.845
356.746
356.17
355.751
355.645
355.852
356.407
357.069
357.875
358.703
359.495
359.733
359.771
359.664
359.122
358.294
357.668
357.448
357.474
357.806
358.415
349.305
348.828
348.465
348.338
348.546
349.02
349.572
350.259
350.983
351.644
351.861
351.897
351.813
351.342
350.634
350.078
349.906
349.94
350.227
350.722
341.832
341.435
341.133
341.015
341.211
341.585
342.029
342.603
343.217
343.769
343.951
344.002
343.943
343.516
342.927
342.435
342.332
342.351
342.589
342.98
334.33
333.987
333.743
333.64
333.807
334.075
334.455
334.928
335.424
335.891
336.002
336.076
336.005
335.653
335.194
334.764
334.72
334.71
334.912
335.208
326.756
326.493
326.306
326.225
326.349
326.532
326.821
327.211
327.593
327.96
328.025
328.115
328.046
327.753
327.414
327.082
327.045
327.022
327.183
327.405
319.15
318.968
318.839
318.772
318.864
318.973
319.166
319.481
319.738
320.005
320.043
320.131
320.056
319.849
319.604
319.379
319.338
319.325
319.434
319.586
311.501
311.411
311.334
311.293
311.343
311.406
311.509
311.723
311.856
312.033
312.043
312.095
312.053
311.931
311.787
311.667
311.644
311.604
311.682
311.771
303.856
303.828
303.809
303.79
303.805
303.821
303.859
303.931
303.977
304.032
304.042
304.042
304.042
303.999
303.949
303.906
303.912
303.901
303.907
303.944
358.736
358.087
357.613
357.49
357.735
358.179
358.762
359.443
360.087
360.845
361.142
361.274
360.947
360.497
359.951
359.362
359.107
359.309
359.639
360.221
351.05
350.473
350.076
349.971
350.171
350.538
351.039
351.622
352.185
352.838
353.066
353.196
352.938
352.538
352.065
351.557
351.338
351.53
351.805
352.27
343.29
342.808
342.489
342.382
342.54
342.855
343.252
343.767
344.247
344.77
344.972
345.055
344.884
344.553
344.164
343.723
343.539
343.696
343.939
344.298
335.509
335.099
334.857
334.772
334.862
335.138
335.451
335.873
336.287
336.675
336.849
336.907
336.804
336.514
336.207
335.859
335.702
335.816
336.028
336.299
327.671
327.361
327.169
327.105
327.154
327.374
327.621
327.947
328.27
328.539
328.699
328.738
328.661
328.431
328.194
327.954
327.816
327.919
328.078
328.281
319.808
319.585
319.464
319.405
319.445
319.584
319.77
319.99
320.222
320.424
320.537
320.569
320.479
320.315
320.178
319.998
319.899
319.985
320.093
320.232
311.926
311.78
311.708
311.67
311.694
311.772
311.889
312.011
312.148
312.274
312.349
312.361
312.287
312.199
312.126
312.021
311.954
312.01
312.068
312.163
304.005
303.942
303.933
303.911
303.925
303.955
303.986
304.019
304.076
304.111
304.148
304.152
304.115
304.093
304.065
304.021
304.005
304.035
304.036
304.077
360.674
360.072
359.53
359.557
359.542
359.962
360.368
360.92
361.655
362.147
362.553
362.583
362.299
361.901
361.615
361.08
360.853
361.035
361.448
362.155
352.708
352.198
351.718
351.758
351.744
352.084
352.447
352.903
353.557
353.96
354.301
354.33
354.093
353.751
353.517
353.057
352.86
353.014
353.385
353.977
344.7
344.268
343.845
343.906
343.892
344.156
344.501
344.864
345.419
345.74
346.036
346.052
345.847
345.572
345.364
344.977
344.841
344.927
345.26
345.783
336.612
336.291
335.938
336.019
335.992
336.217
336.49
336.797
337.234
337.489
337.723
337.729
337.585
337.361
337.161
336.871
336.789
336.808
337.097
337.547
328.535
328.281
328.008
328.076
328.065
328.214
328.455
328.659
329.018
329.188
329.378
329.379
329.283
329.107
328.947
328.719
328.691
328.663
328.871
329.257
320.422
320.24
320.044
320.087
320.104
320.194
320.363
320.521
320.748
320.868
320.999
321.028
320.946
320.82
320.722
320.541
320.538
320.524
320.64
320.948
312.256
312.156
312.057
312.09
312.102
312.142
312.24
312.348
312.461
312.537
312.61
312.641
312.577
312.507
312.489
312.355
312.345
312.332
312.398
312.59
304.115
304.079
304.044
304.046
304.053
304.064
304.107
304.154
304.183
304.197
304.225
304.232
304.21
304.191
304.187
304.141
304.138
304.135
304.156
304.224
362.529
361.947
361.425
361.376
361.33
361.648
362.047
362.444
363.062
363.518
363.857
363.926
363.716
363.196
363.124
362.852
362.716
362.858
363.29
363.805
354.324
353.824
353.384
353.337
353.282
353.552
353.888
354.235
354.764
355.15
355.413
355.498
355.312
354.864
354.83
354.586
354.471
354.572
354.963
355.399
346.095
345.656
345.281
345.225
345.199
345.428
345.683
345.964
346.425
346.74
346.952
347.035
346.869
346.504
346.497
346.277
346.161
346.244
346.626
346.948
337.787
337.44
337.137
337.057
337.065
337.241
337.454
337.637
338.046
338.311
338.446
338.554
338.404
338.115
338.128
337.926
337.841
337.882
338.246
338.477
329.451
329.195
328.952
328.868
328.888
329.01
329.171
329.312
329.654
329.842
329.926
330.032
329.92
329.68
329.699
329.569
329.507
329.497
329.825
329.973
321.094
320.911
320.702
320.65
320.665
320.747
320.862
320.998
321.21
321.363
321.395
321.483
321.406
321.226
321.254
321.165
321.126
321.1
321.35
321.435
312.674
312.571
312.428
312.415
312.426
312.473
312.536
312.641
312.758
312.854
312.863
312.919
312.866
312.753
312.79
312.733
312.706
312.684
312.831
312.883
304.251
304.211
304.165
304.155
304.175
304.184
304.204
304.243
304.276
304.314
304.319
304.347
304.312
304.273
304.294
304.266
304.269
304.247
304.301
304.318
364.366
363.798
363.417
363.217
363.074
363.239
363.719
364.08
364.524
364.992
365.079
365.241
365.072
364.803
364.638
364.478
364.47
364.553
365.107
365.665
355.891
355.429
355.099
354.917
354.808
354.921
355.356
355.659
356.032
356.443
356.503
356.68
356.482
356.25
356.122
356.005
355.981
356.041
356.537
356.992
347.374
347.026
346.728
346.568
346.495
346.573
346.946
347.198
347.502
347.839
347.908
348.063
347.878
347.675
347.56
347.488
347.437
347.494
347.936
348.305
338.829
338.565
338.3
338.167
338.121
338.146
338.494
338.695
338.92
339.191
339.246
339.39
339.197
339.069
338.964
338.936
338.852
338.92
339.31
339.59
330.264
330.059
329.847
329.711
329.685
329.697
329.963
330.152
330.323
330.51
330.562
330.693
330.525
330.429
330.328
330.318
330.258
330.303
330.638
330.842
321.644
321.513
321.375
321.216
321.237
321.245
321.44
321.603
321.683
321.798
321.841
321.964
321.813
321.761
321.689
321.691
321.65
321.675
321.94
322.054
312.999
312.949
312.864
312.741
312.772
312.778
312.893
313.004
313.041
313.089
313.139
313.208
313.115
313.07
313.041
313.04
312.998
313.018
313.196
313.263
304.358
304.343
304.312
304.268
304.292
304.276
304.32
304.365
304.374
304.392
304.416
304.431
304.398
304.375
304.37
304.366
304.357
304.355
304.42
304.451
366.292
365.729
365.299
365.008
364.802
364.924
365.266
365.609
365.971
366.258
366.42
366.537
366.369
366.176
366.065
366.017
366.109
366.321
366.921
367.515
357.555
357.078
356.716
356.473
356.279
356.378
356.667
357.001
357.263
357.528
357.652
357.753
357.605
357.482
357.39
357.326
357.397
357.583
358.116
358.611
348.789
348.395
348.092
347.898
347.725
347.791
348.035
348.343
348.543
348.761
348.881
348.947
348.809
348.721
348.643
348.578
348.637
348.811
349.267
349.663
340.007
339.677
339.417
339.254
339.122
339.146
339.365
339.647
339.795
339.976
340.093
340.124
339.998
339.907
339.841
339.798
339.864
339.991
340.362
340.678
331.152
330.896
330.7
330.577
330.462
330.48
330.664
330.887
331.011
331.138
331.253
331.245
331.134
331.078
331.028
330.999
331.033
331.15
331.432
331.672
322.282
322.109
321.966
321.864
321.798
321.804
321.93
322.105
322.18
322.278
322.39
322.337
322.251
322.222
322.164
322.179
322.177
322.292
322.474
322.648
313.392
313.287
313.206
313.135
313.085
313.108
313.176
313.296
313.322
313.394
313.464
313.42
313.365
313.348
313.324
313.326
313.345
313.414
313.51
313.592
304.496
304.453
304.428
304.404
304.384
304.415
304.418
304.46
304.459
304.49
304.517
304.497
304.477
304.475
304.465
304.472
304.485
304.494
304.523
304.541
367.929
367.311
366.922
366.485
366.309
366.39
366.598
366.938
367.191
367.438
367.632
367.767
367.697
367.501
367.409
367.439
367.571
367.833
368.451
368.991
358.95
358.429
358.095
357.707
357.574
357.619
357.821
358.109
358.315
358.519
358.702
358.821
358.767
358.59
358.502
358.516
358.635
358.877
359.399
359.86
349.939
349.524
349.242
348.925
348.822
348.818
349.014
349.25
349.412
349.588
349.733
349.848
349.801
349.633
349.567
349.575
349.677
349.891
350.344
350.728
340.901
340.6
340.352
340.106
340.027
340.018
340.163
340.34
340.482
340.615
340.734
340.847
340.783
340.678
340.612
340.606
340.699
340.88
341.249
341.549
331.849
331.613
331.441
331.259
331.2
331.171
331.282
331.415
331.5
331.619
331.722
331.817
331.749
331.679
331.626
331.608
331.704
331.835
332.133
332.381
322.776
322.595
322.47
322.365
322.348
322.286
322.375
322.459
322.521
322.615
322.697
322.762
322.704
322.651
322.595
322.584
322.67
322.776
323.001
323.181
313.693
313.575
313.509
313.464
313.465
313.402
313.455
313.495
313.518
313.58
313.64
313.679
313.638
313.608
313.564
313.568
313.618
313.697
313.823
313.936
304.598
304.559
304.539
304.52
304.523
304.491
304.511
304.532
304.53
304.56
304.582
304.589
304.564
304.561
304.536
304.555
304.56
304.588
304.638
304.674
369.193
368.531
368.168
367.755
367.494
367.477
367.665
367.839
368.014
368.331
368.547
368.576
368.632
368.501
368.444
368.519
368.695
369.14
369.639
370.165
359.995
359.413
359.115
358.776
358.544
358.524
358.701
358.816
358.955
359.257
359.46
359.442
359.51
359.392
359.34
359.415
359.577
359.951
360.375
360.848
350.789
350.298
350.072
349.791
349.599
349.555
349.74
349.804
349.904
350.183
350.367
350.309
350.383
350.266
350.263
350.307
350.447
350.773
351.129
351.518
341.591
341.184
341.025
340.783
340.664
340.573
340.738
340.794
340.875
341.091
341.266
341.176
341.26
341.135
341.17
341.175
341.296
341.584
341.869
342.185
332.392
332.058
331.955
331.751
331.672
331.581
331.704
331.75
331.801
331.976
332.134
332.046
332.113
332.016
332.062
332.035
332.135
332.368
332.591
332.831
323.185
322.924
322.865
322.709
322.657
322.577
322.648
322.708
322.747
322.874
322.996
322.938
322.959
322.889
322.918
322.871
322.973
323.142
323.292
323.455
313.942
313.787
313.754
313.635
313.614
313.582
313.617
313.656
313.688
313.762
313.813
313.802
313.793
313.75
313.763
313.725
313.798
313.907
313.989
314.088
304.675
304.63
304.619
304.576
304.559
304.552
304.573
304.581
304.591
304.618
304.629
304.629
304.624
304.611
304.609
304.592
304.624
304.657
304.692
304.728
)
;

boundaryField
{
    hotSide
    {
        type            fixedGradient;
        gradient        nonuniform List<scalar> 
400
(
410.75
414.054
420.595
430.286
442.801
457.67
474.389
492.495
511.603
531.409
551.679
572.241
592.968
613.767
634.577
655.354
676.072
696.716
717.282
737.771
393.355
396.961
404.033
414.466
427.865
443.676
461.322
480.29
500.168
520.64
541.47
562.489
583.576
604.649
625.656
646.564
667.357
688.032
708.593
729.051
384.638
388.842
396.468
407.4
421.246
437.454
455.448
474.715
494.837
515.491
536.439
557.51
578.587
599.594
620.484
641.236
661.843
682.31
702.651
722.884
384.039
389.116
397.335
408.575
422.499
438.635
456.47
475.53
495.411
515.794
536.438
557.169
577.87
598.469
618.928
639.232
659.386
679.405
699.309
719.126
389.341
395.445
404.328
415.865
429.776
445.674
463.129
481.72
501.075
520.885
540.914
560.992
581.009
600.901
620.642
640.232
659.688
679.035
698.305
717.53
398.029
405.214
414.855
426.815
440.844
456.613
473.747
491.871
510.638
529.758
549.007
568.232
587.339
606.29
625.08
643.733
662.285
680.777
699.25
717.743
408.045
416.312
426.8
439.352
453.726
469.61
486.649
504.48
522.768
541.23
559.66
577.93
595.986
613.83
631.499
649.053
666.555
684.065
701.636
719.31
417.832
427.131
438.513
451.802
466.744
483.015
500.243
518.041
536.051
553.979
571.633
588.926
605.861
622.508
638.966
655.341
671.73
688.214
704.855
721.699
426.175
436.381
448.619
462.7
478.352
495.222
512.893
530.918
548.878
566.442
583.424
599.788
615.623
631.087
646.357
661.594
676.928
692.457
708.247
724.341
432.113
442.991
455.913
470.687
487.025
504.545
522.775
541.191
559.286
576.668
593.147
608.747
623.656
638.131
652.423
666.742
681.242
696.029
711.169
726.699
434.968
446.162
459.443
474.617
491.392
509.364
528.024
546.787
565.076
582.445
598.695
613.895
628.301
642.238
656.005
669.837
683.901
698.305
713.115
728.362
434.446
445.519
458.728
473.878
490.67
508.696
527.436
546.302
564.712
582.217
598.612
613.957
628.502
642.562
656.436
670.359
684.499
698.967
713.831
729.127
430.736
441.259
453.977
468.695
485.111
502.818
521.32
540.068
558.537
576.322
593.214
609.219
624.504
639.313
653.893
668.454
683.156
698.115
713.405
729.069
424.539
434.169
446.099
460.138
475.985
493.237
511.424
530.048
548.648
566.86
584.47
601.42
617.78
633.699
649.352
664.906
680.504
696.257
712.245
728.522
417.045
425.561
436.563
449.872
465.179
482.075
500.093
518.758
537.643
556.404
574.817
592.774
610.272
627.378
644.203
660.868
677.492
694.174
710.998
728.021
409.935
417.233
427.296
439.956
454.882
471.623
489.68
508.567
527.856
547.21
566.392
585.266
603.783
621.959
639.855
657.557
675.16
692.754
710.416
728.206
405.451
411.539
420.721
432.843
447.522
464.239
482.432
501.582
521.25
541.098
560.888
580.471
599.773
618.781
637.527
656.071
674.49
692.863
711.262
729.742
406.302
411.322
419.701
431.294
445.671
462.246
480.407
499.609
519.41
539.477
559.576
579.554
599.326
618.862
638.174
657.302
676.309
695.262
714.227
733.252
414.895
419.133
426.772
437.679
451.431
467.445
485.116
503.911
523.401
543.264
563.267
583.257
603.139
622.869
642.44
661.876
681.222
700.531
719.855
739.233
431.961
435.741
442.69
452.702
465.43
480.378
497.023
514.885
533.569
552.768
572.254
591.866
611.5
631.095
650.628
670.101
689.538
708.973
728.44
747.964
)
;
    }
    coldSide
    {
        type            mixed;
        refValue        uniform 300;
        refGradient     uniform 0;
        valueFraction   uniform 0.991591;
        source          uniform 0;
        value           nonuniform List<scalar> 
400
(
300.023
300.024
300.024
300.024
300.025
300.026
300.027
300.027
300.028
300.029
300.03
300.031
300.032
300.034
300.035
300.036
300.037
300.038
300.039
300.039
300.023
300.023
300.023
300.024
300.024
300.025
300.026
300.027
300.028
300.029
300.03
300.031
300.032
300.033
300.034
300.035
300.037
300.037
300.038