/*--------------------------------*- C++ -*----------------------------------*\
| =========                 |                                                 |
| \\      /  F ield         | OpenFOAM: The Open Source CFD Toolbox           |
|  \\    /   O peration     | Version:  2212                                  |
|   \\  /    A nd           | Website:  www.openfoam.com                      |
|    \\/     M anipulation  |                                                 |
\*---------------------------------------------------------------------------*/
FoamFile
{
    version     2.0;
    format      ascii;
    arch        "LSB;label=32;scalar=64";
    class       volScalarField;
    location    "0";
    object      T;
}
// * * * * * * * * * * * * * * * * * * * * * * * * * * * * * * * * * * * * * //

dimensions      [0 0 0 1 0 0 0];

internalField   nonuniform List<scalar> 
3200
(
343.926
343.166
342.717
342.723
343.255
344.052
345.006
345.824
346.7
347.279
347.533
347.545
347.063
346.209
345.445
344.668
343.93
343.79
344.296
345.236
338.169
337.56
337.173
337.156
337.625
338.284
339.134
339.809
340.569
341.11
341.272
341.287
340.844
340.103
339.442
338.775
338.117
338.008
338.42
339.171
332.353
331.878
331.557
331.539
331.946
332.47
333.208
333.758
334.392
334.874
334.973
334.978
334.614
333.975
333.416
332.855
332.277
332.207
332.535
333.125
326.526
326.133
325.895
325.88
326.2
326.631
327.237
327.655
328.173
328.598
328.64
328.66
328.347
327.83
327.368
326.936
326.421
326.384
326.642
327.098
320.671
320.353
320.186
320.159
320.427
320.77
321.237
321.547
321.97
322.308
322.295
322.337
322.071
321.656
321.297
320.981
320.553
320.546
320.746
321.087
314.819
314.562
314.446
314.416
314.618
314.883
315.184
315.406
315.726
315.962
315.955
315.983
315.791
315.477
315.214
315.041
314.693
314.698
314.827
315.083
308.909
308.76
308.691
308.669
308.779
308.959
309.118
309.273
309.468
309.61
309.595
309.602
309.498
309.298
309.132
309.033
308.819
308.832
308.916
309.07
302.982
302.932
302.915
302.906
302.934
303.01
303.064
303.119
303.18
303.219
303.215
303.211
303.182
303.117
303.058
303.03
302.953
302.966
302.987
303.039
344.049
343.288
342.8
342.92
343.483
344.384
345.369
346.303
347.195
347.87
348.138
348.049
347.581
346.72
345.897
345.077
344.335
344.074
344.415
345.3
338.274
337.663
337.242
337.338
337.806
338.572
339.421
340.239
340.983
341.545
341.785
341.711
341.293
340.537
339.821
339.135
338.46
338.239
338.518
339.264
332.443
331.939
331.605
331.691
332.096
332.724
333.425
334.111
334.721
335.19
335.402
335.338
334.965
334.347
333.726
333.148
332.567
332.385
332.608
333.25
326.592
326.169
325.916
326.016
326.324
326.817
327.385
327.954
328.426
328.837
328.999
328.939
328.643
328.144
327.626
327.141
326.669
326.501
326.705
327.225
320.722
320.386
320.213
320.287
320.51
320.914
321.322
321.772
322.133
322.455
322.569
322.529
322.304
321.929
321.498
321.133
320.749
320.618
320.805
321.199
314.824
314.587
314.49
314.532
314.687
314.974
315.232
315.556
315.847
316.046
316.129
316.116
315.944
315.682
315.371
315.113
314.826
314.737
314.877
315.168
308.899
308.78
308.716
308.739
308.854
309.002
309.151
309.346
309.528
309.645
309.687
309.702
309.574
309.426
309.232
309.095
308.91
308.841
308.926
309.102
302.986
302.949
302.921
302.925
302.97
303.012
303.067
303.133
303.194
303.235
303.238
303.241
303.216
303.154
303.093
303.064
302.982
302.961
302.987
303.052
344.357
343.583
343.115
343.206
343.99
344.874
346.006
347.066
348.053
348.642
349.079
348.947
348.429
347.512
346.559
345.601
344.901
344.512
344.817
345.685
338.532
337.914
337.515
337.593
338.248
338.991
339.946
340.874
341.749
342.208
342.583
342.469
342.013
341.214
340.38
339.586
338.974
338.623
338.848
339.579
332.681
332.173
331.832
331.917
332.465
333.067
333.891
334.632
335.374
335.743
336.061
335.984
335.591
334.894
334.193
333.526
333.011
332.716
332.874
333.488
326.805
326.37
326.089
326.179
326.631
327.113
327.784
328.402
328.977
329.268
329.538
329.463
329.154
328.563
327.991
327.442
327.009
326.805
326.885
327.384
320.894
320.553
320.352
320.409
320.758
321.108
321.622
322.141
322.559
322.776
322.993
322.942
322.693
322.221
321.78
321.344
321.018
320.888
320.901
321.292
314.95
314.719
314.577
314.609
314.863
315.089
315.451
315.835
316.128
316.281
316.43
316.392
316.208
315.874
315.553
315.238
315.025
314.93
314.93
315.213
308.979
308.847
308.763
308.78
308.94
309.053
309.285
309.509
309.698
309.776
309.881
309.866
309.734
309.535
309.334
309.14
309.03
308.954
308.964
309.135
303.005
302.958
302.932
302.948
302.996
303.039
303.099
303.186
303.256
303.278
303.308
303.312
303.265
303.199
303.131
303.068
303.025
302.995
303.008
303.059
344.832
344.064
343.619
343.763
344.567
345.509
346.715
347.944
348.971
349.65
350.032
349.998
349.416
348.494
347.402
346.456
345.589
345.234
345.476
346.316
338.952
338.313
337.909
338.074
338.732
339.547
340.572
341.637
342.5
343.077
343.409
343.382
342.857
342.049
341.107
340.288
339.534
339.227
339.423
340.126
333.019
332.497
332.17
332.314
332.843
333.53
334.374
335.275
336.01
336.487
336.757
336.734
336.305
335.617
334.791
334.132
333.475
333.198
333.387
333.936
327.062
326.624
326.384
326.498
326.931
327.472
328.161
328.901
329.484
329.892
330.097
330.098
329.725
329.159
328.447
327.932
327.397
327.163
327.333
327.743
321.1
320.728
320.555
320.645
320.987
321.387
321.91
322.502
322.961
323.283
323.428
323.428
323.136
322.699
322.137
321.733
321.315
321.123
321.253
321.564
315.101
314.837
314.709
314.782
315.006
315.298
315.664
316.103
316.43
316.648
316.758
316.759
316.543
316.241
315.811
315.534
315.237
315.106
315.184
315.396
309.078
308.94
308.846
308.877
309.033
309.193
309.399
309.699
309.879
310.004
310.064
310.071
309.941
309.752
309.487
309.324
309.145
309.069
309.118
309.228
303.046
303.005
302.967
302.984
303.04
303.085
303.148
303.254
303.319
303.344
303.372
303.374
303.328
303.278
303.172
303.122
303.056
303.054
303.052
303.1
345.45
344.696
344.468
344.632
345.331
346.312
347.7
348.946
350.081
350.852
351.295
351.208
350.503
349.598
348.441
347.329
346.578
346.171
346.346
347.129
339.512
338.876
338.654
338.799
339.4
340.209
341.401
342.478
343.449
344.101
344.524
344.425
343.786
343.004
341.974
341.057
340.368
340.02
340.183
340.8
333.5
333.004
332.809
332.898
333.424
334.072
335.071
335.971
336.8
337.322
337.735
337.631
337.059
336.404
335.515
334.76
334.174
333.872
334.034
334.494
327.456
327.069
326.916
326.944
327.398
327.908
328.741
329.483
330.128
330.553
330.924
330.806
330.333
329.789
329.065
328.486
327.947
327.707
327.867
328.186
321.384
321.098
320.989
320.982
321.338
321.73
322.391
322.964
323.444
323.793
324.085
323.965
323.59
323.191
322.598
322.168
321.731
321.569
321.682
321.912
315.303
315.111
315.016
314.992
315.25
315.542
316.018
316.414
316.74
317.024
317.236
317.122
316.834
316.586
316.127
315.853
315.522
315.407
315.478
315.626
309.194
309.085
309.028
309.006
309.152
309.337
309.609
309.849
310.056
310.22
310.378
310.284
310.114
309.961
309.68
309.527
309.336
309.248
309.297
309.386
303.093
303.051
303.028
303.02
303.071
303.129
303.221
303.294
303.371
303.424
303.479
303.449
303.399
303.331
303.245
303.19
303.13
303.106
303.11
303.149
346.47
345.628
345.381
345.563
346.3
347.268
348.757
350.095
351.221
352.005
352.496
352.374
351.702
350.881
349.562
348.452
347.526
347.261
347.401
348.119
340.368
339.691
339.437
339.6
340.196
341.052
342.32
343.475
344.428
345.104
345.528
345.426
344.824
344.11
342.963
342.002
341.21
340.954
341.058
341.687
334.233
333.686
333.459
333.579
334.039
334.804
335.835
336.823
337.598
338.184
338.55
338.437
337.948
337.329
336.345
335.571
334.869
334.661
334.707
335.262
328.037
327.607
327.449
327.539
327.876
328.491
329.341
330.153
330.764
331.253
331.547
331.454
331.067
330.51
329.732
329.119
328.511
328.382
328.359
328.843
321.83
321.505
321.383
321.446
321.695
322.182
322.822
323.473
323.936
324.309
324.529
324.465
324.18
323.723
323.147
322.671
322.168
322.087
322.053
322.424
315.62
315.374
315.296
315.334
315.52
315.861
316.28
316.756
317.097
317.372
317.52
317.493
317.3
316.932
316.55
316.209
315.828
315.779
315.759
316.022
309.388
309.243
309.211
309.199
309.337
309.519
309.766
310.066
310.262
310.435
310.512
310.522
310.408
310.194
309.949
309.746
309.513
309.463
309.457
309.635
303.144
303.089
303.089
303.077
303.12
303.194
303.277
303.372
303.431
303.489
303.519
303.532
303.494
303.423
303.334
303.272
303.2
303.163
303.164
303.235
347.394
346.701
346.466
346.564
347.332
348.295
349.84
351.104
352.392
353.351
353.777
353.614
353.081
352.155
350.752
349.646
348.713
348.38
348.62
349.247
341.185
340.572
340.37
340.449
341.1
341.947
343.274
344.32
345.466
346.261
346.623
346.469
345.993
345.199
343.958
343.022
342.204
341.956
342.147
342.653
334.912
334.404
334.239
334.327
334.815
335.559
336.659
337.54
338.509
339.167
339.464
339.348
338.897
338.25
337.202
336.401
335.71
335.512
335.661
336.081
328.611
328.203
328.059
328.176
328.53
329.135
330.022
330.751
331.524
332.046
332.308
332.211
331.806
331.294
330.449
329.788
329.236
329.069
329.177
329.515
322.305
321.98
321.854
321.958
322.236
322.681
323.37
323.954
324.505
324.951
325.135
325.053
324.738
324.356
323.711
323.173
322.745
322.607
322.67
322.953
315.963
315.72
315.642
315.718
315.917
316.203
316.708
317.127
317.49
317.838
317.973
317.901
317.67
317.406
316.943
316.576
316.266
316.153
316.171
316.399
309.594
309.445
309.408
309.459
309.577
309.727
310.035
310.294
310.517
310.709
310.81
310.752
310.623
310.452
310.172
309.957
309.769
309.698
309.705
309.849
303.222
303.171
303.151
303.177
303.208
303.257
303.367
303.443
303.532
303.586
303.632
303.59
303.563
303.51
303.416
303.336
303.28
303.247
303.242
303.298
348.455
347.842
347.562
347.752
348.518
349.471
350.885
352.212
353.655
354.588
355.014
354.864
354.257
353.304
351.936
350.845
350.039
349.697
349.837
350.389
342.071
341.572
341.324
341.461
342.141
342.959
344.149
345.301
346.543
347.335
347.686
347.527
347.007
346.19
345.01
344.054
343.352
343.06
343.158
343.621
335.653
335.263
335.028
335.167
335.722
336.401
337.405
338.383
339.419
340.081
340.338
340.216
339.777
339.081
338.105
337.287
336.671
336.426
336.504
336.868
329.209
328.887
328.722
328.83
329.276
329.822
330.652
331.454
332.275
332.807
333.007
332.899
332.559
331.985
331.182
330.513
329.987
329.776
329.887
330.148
322.738
322.487
322.399
322.469
322.81
323.222
323.894
324.488
325.111
325.521
325.679
325.584
325.343
324.894
324.244
323.741
323.295
323.154
323.239
323.429
316.259
316.084
316.035
316.058
316.319
316.612
317.117
317.494
317.931
318.212
318.357
318.287
318.116
317.774
317.307
316.953
316.632
316.551
316.595
316.722
309.766
309.656
309.641
309.648
309.821
309.993
310.297
310.497
310.762
310.934
311.023
310.978
310.894
310.682
310.385
310.177
309.989
309.931
309.963
310.031
303.28
303.234
303.234
303.233
303.295
303.344
303.451
303.512
303.608
303.659
303.691
303.685
303.658
303.585
303.484
303.404
303.361
303.322
303.349
303.351
349.585
349.049
348.846
349.003
349.611
350.721
352.071
353.416
354.739
355.649
356.302
356.215
355.535
354.687
353.436
352.144
351.427
350.967
351.196
351.578
343.066
342.596
342.449
342.523
343.084
344.043
345.182
346.321
347.457
348.22
348.799
348.682
348.137
347.407
346.285
345.179
344.534
344.155
344.345
344.654
336.52
336.099
335.986
336.027
336.534
337.293
338.266
339.234
340.192
340.804
341.281
341.154
340.751
340.117
339.131
338.201
337.657
337.366
337.51
337.767
329.929
329.576
329.49
329.508
329.958
330.551
331.308
332.123
332.91
333.399
333.777
333.664
333.363
332.817
332.006
331.237
330.79
330.593
330.679
330.915
323.296
323.052
322.987
322.954
323.348
323.804
324.354
325.018
325.591
325.983
326.244
326.157
325.972
325.518
324.866
324.287
323.939
323.803
323.846
324.072
316.658
316.491
316.456
316.411
316.709
317.043
317.405
317.897
318.303
318.579
318.752
318.687
318.558
318.218
317.741
317.344
317.091
317.031
317.025
317.213
310.014
309.908
309.904
309.87
310.033
310.231
310.454
310.762
310.993
311.186
311.271
311.223
311.148
310.935
310.654
310.412
310.276
310.247
310.23
310.356
303.356
303.32
303.327
303.312
303.358
303.434
303.507
303.598
303.675
303.754
303.781
303.758
303.728
303.663
303.578
303.497
303.444
303.436
303.428
303.474
350.918
350.168
350.05
350.119
350.992
351.988
353.246
354.545
355.795
356.8
357.415
357.41
356.633
355.905
354.727
353.408
352.802
352.384
352.552
352.977
344.191
343.558
343.481
343.505
344.255
345.125
346.212
347.294
348.375
349.21
349.763
349.753
349.071
348.437
347.421
346.246
345.752
345.392
345.529
345.866
337.44
336.944
336.852
336.866
337.484
338.238
339.146
340.043
340.927
341.636
342.113
342.085
341.506
340.978
340.104
339.098
338.703
338.427
338.525
338.806
330.659
330.265
330.201
330.177
330.706
331.302
332.056
332.792
333.471
334.047
334.453
334.42
333.957
333.528
332.812
331.981
331.653
331.46
331.52
331.732
323.868
323.552
323.521
323.483
323.897
324.344
324.933
325.523
326.029
326.475
326.805
326.805
326.412
326.085
325.526
324.891
324.629
324.48
324.506
324.654
317.059
316.843
316.826
316.786
317.097
317.392
317.822
318.25
318.587
318.91
319.167
319.154
318.863
318.633
318.228
317.793
317.597
317.495
317.497
317.613
310.229
310.125
310.132
310.074
310.278
310.448
310.701
310.969
311.166
311.355
311.502
311.504
311.321
311.182
310.938
310.675
310.561
310.508
310.496
310.553
303.425
303.4
303.402
303.375
303.459
303.506
303.59
303.668
303.744
303.801
303.844
303.852
303.794
303.739
303.663
303.575
303.532
303.529
303.521
303.539
352.04
351.557
351.245
351.38
352.137
353.179
354.472
355.704
356.856
357.81
358.41
358.359
357.832
356.775
355.918
354.79
354.067
353.734
353.828
354.372
345.165
344.748
344.478
344.591
345.25
346.147
347.247
348.302
349.281
350.095
350.616
350.576
350.09
349.183
348.475
347.484
346.847
346.572
346.63
347.071
338.266
337.882
337.674
337.735
338.338
339.093
339.99
340.877
341.706
342.406
342.827
342.796
342.378
341.626
341.041
340.178
339.62
339.396
339.429
339.792
331.313
330.997
330.858
330.889
331.398
332.012
332.721
333.45
334.133
334.709
335.03
335.005
334.672
334.071
333.594
332.87
332.39
332.225
332.248
332.532
324.371
324.105
324.038
324.031
324.44
324.909
325.459
326.031
326.546
327.004
327.242
327.234
326.976
326.509
326.144
325.578
325.159
325.09
325.087
325.305
317.421
317.226
317.195
317.191
317.475
317.805
318.208
318.592
318.956
319.3
319.47
319.481
319.302
318.951
318.673
318.291
317.972
317.955
317.942
318.074
310.452
310.358
310.339
310.352
310.49
310.692
310.945
311.152
311.378
311.589
311.671
311.712
311.602
311.377
311.209
310.986
310.796
310.776
310.803
310.847
303.505
303.475
303.466
303.48
303.517
303.579
303.679
303.732
303.824
303.883
303.91
303.921
303.889
303.821
303.752
303.685
303.605
303.61
303.625
303.643
353.292
352.816
352.561
352.769
353.363
354.433
355.41
356.727
357.905
358.712
359.38
359.319
358.692
357.862
356.984
355.996
355.374
355.093
355.113
355.727
346.244
345.833
345.628
345.795
346.32
347.224
348.07
349.202
350.203
350.872
351.45
351.405
350.858
350.121
349.398
348.508
347.991
347.729
347.741
348.263
339.176
338.808
338.668
338.82
339.249
339.986
340.7
341.652
342.485
343.058
343.51
343.484
343.044
342.371
341.813
341.047
340.627
340.379
340.383
340.822
332.076
331.772
331.699
331.812
332.159
332.745
333.332
334.084
334.764
335.237
335.579
335.57
335.235
334.643
334.221
333.59
333.235
333.028
333.042
333.369
324.964
324.719
324.693
324.765
325.044
325.473
325.949
326.54
327.054
327.411
327.67
327.689
327.419
326.944
326.632
326.116
325.849
325.684
325.714
325.943
317.811
317.657
317.672
317.715
317.903
318.208
318.564
318.969
319.318
319.594
319.767
319.799
319.585
319.248
319.039
318.651
318.472
318.354
318.381
318.537
310.681
310.62
310.644
310.625
310.766
310.959
311.149
311.393
311.592
311.762
311.883
311.891
311.768
311.574
311.449
311.204
311.087
311.01
311.041
311.117
303.573
303.568
303.574
303.555
303.608
303.678
303.732
303.805
303.892
303.947
303.981
303.982
303.949
303.887
303.842
303.758
303.716
303.692
303.704
303.729
354.658
354.102
353.8
354.113
354.548
355.537
356.441
357.579
358.788
359.567
360.142
360.226
359.593
358.828
358.011
357.283
356.61
356.463
356.442
356.984
347.417
346.959
346.687
346.963
347.325
348.164
348.972
349.946
350.959
351.609
352.115
352.202
351.631
350.962
350.261
349.627
349.028
348.916
348.903
349.341
340.162
339.773
339.565
339.774
340.098
340.785
341.477
342.302
343.137
343.642
344.097
344.161
343.663
343.124
342.533
341.983
341.466
341.37
341.372
341.729
332.891
332.564
332.424
332.566
332.84
333.427
333.969
334.641
335.313
335.701
336.07
336.129
335.711
335.265
334.823
334.346
333.902
333.832
333.868
334.106
325.604
325.368
325.256
325.347
325.555
326.03
326.43
326.969
327.48
327.774
328.057
328.103
327.772
327.427
327.109
326.702
326.369
326.305
326.375
326.51
318.314
318.178
318.068
318.132
318.274
318.616
318.883
319.266
319.625
319.867
320.053
320.071
319.829
319.593
319.391
319.053
318.832
318.769
318.849
318.924
310.985
310.935
310.857
310.891
310.984
311.19
311.33
311.581
311.773
311.937
312.052
312.071
311.915
311.765
311.654
311.442
311.315
311.261
311.333
311.371
303.684
303.664
303.637
303.65
303.689
303.764
303.798
303.88
303.938
304
304.044
304.049
303.998
303.943
303.905
303.827
303.786
303.77
303.804
303.815
355.904
355.398
355.096
355.167
355.724
356.569
357.618
358.562
359.696
360.36
360.852
360.855
360.578
359.82
359.134
358.43
357.836
357.665
357.864
358.41
348.487
348.049
347.796
347.867
348.31
349.067
349.962
350.786
351.736
352.324
352.726
352.724
352.507
351.809
351.223
350.634
350.105
349.955
350.126
350.562
341.055
340.699
340.473
340.542
340.891
341.536
342.299
343
343.775
344.284
344.62
344.609
344.421
343.794
343.326
342.846
342.363
342.262
342.404
342.749
333.609
333.346
333.152
333.195
333.472
334.008
334.593
335.212
335.83
336.24
336.514
336.507
336.333
335.809
335.459
335.071
334.658
334.583
334.704
334.958
326.16
325.976
325.803
325.816
326.043
326.46
326.902
327.416
327.855
328.194
328.41
328.395
328.261
327.873
327.597
327.28
326.962
326.887
327.034
327.181
318.711
318.589
318.426
318.462
318.618
318.9
319.22
319.591
319.882
320.15
320.309
320.295
320.201
319.918
319.713
319.499
319.263
319.211
319.345
319.426
311.258
311.174
311.071
311.09
311.18
311.346
311.547
311.753
311.933
312.111
312.205
312.202
312.14
311.964
311.846
311.707
311.576
311.549
311.637
311.666
303.766
303.754
303.716
303.716
303.758
303.794
303.876
303.937
304.002
304.056
304.088
304.088
304.07
304.002
303.973
303.918
303.885
303.866
303.903
303.917
357.242
356.813
356.425
356.431
356.989
357.745
358.595
359.498
360.36
361.106
361.473
361.63
361.377
360.817
360.151
359.624
359.1
359.033
359.172
359.618
349.629
349.303
348.961
348.946
349.435
350.08
350.804
351.561
352.301
352.949
353.263
353.374
353.182
352.667
352.104
351.652
351.22
351.115
351.241
351.603
342.004
341.756
341.45
341.467
341.878
342.402
343.013
343.646
344.262
344.794
345.036
345.151
345.007
344.547
344.081
343.673
343.311
343.245
343.34
343.621
334.374
334.182
333.918
333.959
334.281
334.713
335.206
335.726
336.22
336.644
336.834
336.924
336.826
336.442
336.06
335.71
335.425
335.396
335.467
335.663
326.753
326.593
326.39
326.433
326.686
327.007
327.403
327.826
328.173
328.494
328.665
328.717
328.654
328.353
328.06
327.764
327.547
327.54
327.596
327.717
319.124
319.027
318.854
318.895
319.076
319.282
319.595
319.891
320.13
320.359
320.462
320.544
320.483
320.252
320.058
319.834
319.677
319.679
319.721
319.793
311.502
311.444
311.32
311.337
311.454
311.576
311.768
311.955
312.088
312.219
312.281
312.355
312.306
312.161
312.04
311.902
311.818
311.829
311.848
311.873
303.857
303.846
303.803
303.806
303.847
303.879
303.947
304.019
304.045
304.087
304.116
304.156
304.131
304.074
304.038
303.983
303.968
303.966
303.967
303.966
358.547
358.127
357.711
357.849
358.293
358.806
359.554
360.449
361.364
361.899
362.25
362.256
362.159
361.711
361.172
360.703
360.357
360.326
360.479
360.884
350.774
350.417
350.043
350.167
350.537
350.992
351.637
352.383
353.201
353.639
353.938
353.947
353.849
353.466
353.004
352.58
352.283
352.267
352.374
352.695
342.997
342.708
342.362
342.475
342.806
343.167
343.698
344.336
345.022
345.381
345.628
345.637
345.552
345.22
344.831
344.456
344.227
344.215
344.296
344.528
335.218
334.984
334.668
334.779
335.052
335.336
335.762
336.285
336.838
337.133
337.324
337.326
337.273
336.995
336.66
336.357
336.183
336.168
336.214
336.384
327.424
327.246
326.968
327.071
327.284
327.506
327.839
328.235
328.67
328.901
329.016
329.057
329.01
328.772
328.509
328.257
328.15
328.125
328.126
328.272
319.595
319.477
319.273
319.365
319.5
319.663
319.908
320.167
320.483
320.656
320.716
320.786
320.746
320.556
320.355
320.175
320.129
320.103
320.084
320.201
311.786
311.707
311.598
311.631
311.707
311.823
311.968
312.126
312.303
312.406
312.429
312.523
312.459
312.348
312.2
312.13
312.096
312.077
312.071
312.136
303.948
303.922
303.886
303.899
303.914
303.966
304.025
304.065
304.119
304.148
304.174
304.212
304.172
304.14
304.086
304.069
304.058
304.054
304.051
304.063
359.965
359.396
359.064
359.168
359.449
359.97
360.657
361.361
362.238
362.692
362.971
363.025
362.9
362.547
362.198
361.69
361.472
361.623
361.819
362.202
351.979
351.489
351.237
351.314
351.571
351.991
352.575
353.173
353.944
354.305
354.559
354.597
354.467
354.185
353.879
353.418
353.23
353.403
353.524
353.826
343.972
343.575
343.381
343.444
343.682
344.005
344.504
345.034
345.65
345.933
346.142
346.215
346.06
345.816
345.573
345.162
345.007
345.165
345.259
345.495
335.967
335.634
335.505
335.57
335.759
336.005
336.414
336.874
337.361
337.561
337.744
337.81
337.677
337.452
337.265
336.93
336.779
336.931
337.004
337.194
327.976
327.702
327.62
327.682
327.819
328.011
328.338
328.704
329.044
329.21
329.345
329.422
329.291
329.096
328.996
328.713
328.59
328.725
328.754
328.904
320.005
319.781
319.731
319.802
319.88
320.004
320.246
320.524
320.743
320.864
320.97
321.025
320.943
320.756
320.721
320.506
320.406
320.541
320.532
320.626
312.039
311.863
311.858
311.899
311.944
312.016
312.169
312.31
312.451
312.527
312.589
312.619
312.612
312.459
312.441
312.318
312.241
312.339
312.332
312.384
304.031
303.977
303.976
303.995
304
304.027
304.079
304.123
304.169
304.197
304.231
304.228
304.235
304.177
304.177
304.124
304.107
304.13
304.139
304.149
361.257
360.626
360.266
360.327
360.637
361.015
361.759
362.325
363.041
363.54
363.823
363.819
363.623
363.397
363.135
362.876
362.682
362.804
363.169
363.481
353.1
352.572
352.26
352.318
352.55
352.881
353.531
354.005
354.627
355.048
355.287
355.27
355.082
354.887
354.648
354.456
354.288
354.39
354.694
354.932
344.944
344.476
344.244
344.292
344.479
344.753
345.308
345.705
346.203
346.539
346.739
346.743
346.551
346.404
346.181
346.037
345.911
345.992
346.218
346.407
336.791
336.39
336.231
336.243
336.412
336.607
337.09
337.376
337.79
338.05
338.222
338.241
338.053
337.944
337.75
337.634
337.547
337.605
337.776
337.929
328.635
328.323
328.199
328.189
328.314
328.479
328.858
329.067
329.395
329.581
329.724
329.728
329.597
329.473
329.37
329.258
329.186
329.231
329.371
329.484
320.464
320.24
320.152
320.136
320.201
320.355
320.618
320.784
320.973
321.135
321.22
321.219
321.15
321.045
320.988
320.9
320.829
320.876
320.984
321.056
312.31
312.15
312.097
312.097
312.137
312.231
312.378
312.487
312.577
312.702
312.738
312.745
312.685
312.637
312.594
312.551
312.497
312.523
312.619
312.655
304.133
304.068
304.067
304.053
304.072
304.101
304.148
304.189
304.211
304.251
304.265
304.264
304.259
304.237
304.209
304.213
304.18
304.205
304.229
304.243
362.607
361.88
361.495
361.543
361.769
362.147
362.759
363.247
363.913
364.339
364.576
364.598
364.382
364.229
364.065
364.036
363.787
363.925
364.367
364.679
354.249
353.629
353.291
353.349
353.517
353.833
354.366
354.792
355.372
355.735
355.94
355.929
355.728
355.587
355.454
355.435
355.222
355.319
355.702
355.948
345.873
345.372
345.097
345.146
345.264
345.54
345.999
346.34
346.84
347.138
347.322
347.314
347.091
346.994
346.902
346.878
346.704
346.756
347.085
347.259
337.512
337.126
336.895
336.952
337.02
337.261
337.627
337.915
338.322
338.559
338.706
338.709
338.495
338.419
338.363
338.364
338.182
338.224
338.499
338.597
329.166
328.876
328.687
328.74
328.8
328.993
329.28
329.49
329.802
329.997
330.107
330.095
329.929
329.867
329.82
329.849
329.686
329.709
329.913
329.966
320.829
320.644
320.497
320.536
320.599
320.728
320.93
321.081
321.282
321.42
321.503
321.492
321.362
321.32
321.307
321.331
321.19
321.21
321.341
321.398
312.515
312.412
312.314
312.333
312.378
312.466
312.576
312.658
312.777
312.831
312.91
312.898
312.816
312.804
312.787
312.819
312.715
312.74
312.812
312.863
304.194
304.165
304.121
304.129
304.143
304.173
304.215
304.244
304.278
304.281
304.322
304.316
304.292
304.283
304.282
304.295
304.262
304.279
304.296
304.31
363.492
362.897
362.439
362.435
362.56
362.908
363.464
364.131
364.431
364.858
365.275
365.208
365.078
365.012
364.84
364.816
364.712
364.882
365.224
365.661
354.965
354.432
354.058
354.058
354.15
354.434
354.963
355.537
355.788
356.144
356.514
356.427
356.307
356.286
356.117
356.064
356.003
356.105
356.389
356.754
346.451
346.012
345.713
345.703
345.786
346.006
346.461
346.953
347.191
347.443
347.794
347.712
347.583
347.596
347.429
347.37
347.312
347.402
347.628
347.939
338.002
337.615
337.403
337.36
337.455
337.607
337.999
338.388
338.605
338.782
339.081
339.003
338.909
338.915
338.767
338.71
338.67
338.745
338.918
339.157
329.55
329.235
329.102
329.037
329.125
329.238
329.557
329.857
330.006
330.139
330.38
330.336
330.248
330.273
330.128
330.092
330.064
330.114
330.249
330.413
321.093
320.891
320.79
320.73
320.814
320.887
321.127
321.355
321.413
321.521
321.688
321.677
321.617
321.622
321.512
321.492
321.474
321.494
321.596
321.705
312.661
312.529
312.473
312.433
312.508
312.543
312.685
312.844
312.837
312.924
313.03
313.016
312.974
312.986
312.928
312.914
312.897
312.909
312.966
313.043
304.244
304.193
304.174
304.16
304.198
304.201
304.239
304.313
304.297
304.335
304.36
304.369
304.341
304.356
304.328
304.325
304.319
304.322
304.346
304.373
)
;

boundaryField
{
    hotSide
    {
        type            fixedGradient;
        gradient        nonuniform List<scalar> 
400
(
457.801
457.738
460.437
465.818
473.59
483.336
494.615
507.024
520.234
533.994
548.121
562.498
577.056
591.775
606.673
621.802
637.238
653.065
669.349
686.122
443.49
443.761
446.988
453.07
461.652
472.241
484.328
497.465
511.297
525.559
540.067
554.706
569.415
584.184
599.046
614.074
629.366
645.032
661.162
677.8
437.249
438.162
441.985
448.605
457.668
468.679
481.127
494.561
508.618
523.029
537.607
552.236
566.862
581.481
596.136
610.909
625.909
641.252
657.039
673.32
438.537
440.381
444.885
451.931
461.208
472.289
484.715
498.065
511.989
526.219
540.568
554.919
569.222
583.479
597.738
612.084
626.626
641.474
656.723
672.432
445.327
448.281
453.58
461.096
470.565
481.629
493.897
506.992
520.588
534.425
548.323
562.169
575.922
589.593
603.239
616.95
630.832
644.99
659.515
674.468
455.295
459.448
465.67
473.817
483.647
494.845
507.061
519.95
533.206
546.58
559.903
573.078
586.082
598.95
611.76
624.615
637.628
650.908
664.547
678.612
466.492
471.873
479.132
488.102
498.538
510.132
522.54
535.418
548.455
561.407
574.115
586.51
598.607
610.484
622.258
634.064
646.037
658.297
670.942
684.046
477.378
483.956
492.311
502.257
513.528
525.795
538.68
551.802
564.814
577.449
589.559
601.115
612.194
622.944
633.548
644.187
655.027
666.208
677.834
689.982
486.694
494.342
503.751
514.718
526.955
540.092
553.695
567.304
580.494
592.95
604.523
615.241
625.272
634.863
644.279
653.762
663.51
673.677
684.374
695.671
493.401
501.862
512.123
523.977
537.116
551.134
565.53
579.75
593.264
605.682
616.846
626.849
635.971
644.567
652.988
661.526
670.405
679.787
689.78
700.448
496.742
505.614
516.346
528.727
542.444
557.066
572.046
586.76
600.595
613.097
624.096
633.734
642.369
650.433
658.328
666.375
674.813
683.803
693.451
703.817
496.372
505.16
515.857
528.253
542.027
556.742
571.845
586.704
600.705
613.39
624.583
634.418
643.24
651.477
659.524
667.706
676.26
685.353
695.092
705.542
492.47
500.687
510.86
522.777
536.117
550.448
565.244
579.93
593.959
606.925
618.653
629.212
638.858
647.933
656.777
665.685
674.889
684.558
694.809
705.715
485.771
493.033
502.334
513.466
526.111
539.852
554.201
568.648
582.726
596.085
608.544
620.104
630.909
641.194
651.218
661.229
671.441
682.022
693.096
704.747
477.513
483.58
491.845
502.113
514.067
527.29
541.313
555.664
569.924
583.775
597.026
609.622
621.625
633.178
644.467
655.694
667.047
678.688
690.746
703.308
469.411
474.181
481.398
490.883
502.303
515.212
529.123
543.565
558.131
572.512
586.508
600.031
613.09
625.768
638.2
650.55
662.987
675.668
688.722
702.238
463.691
467.184
473.428
482.259
493.303
506.056
519.982
534.586
549.459
564.292
578.885
593.132
607.011
620.573
633.919
647.187
660.537
674.122
688.073
702.475
462.989
465.366
470.742
478.964
489.621
502.152
515.98
530.592
545.578
560.638
575.571
590.266
604.685
618.857
632.859
646.812
660.863
675.164
689.844
704.981
469.637
471.197
475.797
483.305
493.318
505.283
518.634
532.871
547.6
562.532
577.469
592.294
606.958
621.471
635.889
650.313
664.868
679.693
694.902
710.562
484.377
485.451
489.361
496
505.038
516.011
528.428
541.846
555.902
570.322
584.914
599.553
614.178
628.78
643.392
658.087
672.962
688.12
703.65
719.602
)
;
    }
    coldSide
    {
        type            mixed;
        refValue        uniform 300;
        refGradient     uniform 0;
        valueFraction   uniform 0.991591;
        source          uniform 0;
        value           nonuniform List<scalar> 
400
(
300.025
300.025
300.025
300.026
300.026
300.026
300.027
300.028
300.028
300.029
300.029
300.03
300.031
300.032
300.032
300.033
300.034
300.035
300.035
300.036
300.025
300.025
300.025
300.025
300.026
300.026
300.027
300.027
300.028
300.029
300.029
300.03
300.031
300.032
300.032
300.033
300.033