/*--------------------------------*- C++ -*----------------------------------*\
| =========                 |                                                 |
| \\      /  F ield         | OpenFOAM: The Open Source CFD Toolbox           |
|  \\    /   O peration     | Version:  2212                                  |
|   \\  /    A nd           | Website:  www.openfoam.com                      |
|    \\/     M anipulation  |                                                 |
\*---------------------------------------------------------------------------*/
FoamFile
{
    version     2.0;
    format      ascii;
    arch        "LSB;label=32;scalar=64";
    class       volScalarField;
    location    "./ITHACAoutput/true/12.5";
    object      error;
}
// * * * * * * * * * * * * * * * * * * * * * * * * * * * * * * * * * * * * * //

dimensions      [0 0 0 1 0 0 0];

internalField   nonuniform List<scalar> 
3200
(
3.84671
6.41535
4.40023
7.5367
7.9149
6.21774
4.53448
7.31577
5.05586
9.15385
6.35727
8.84424
8.89216
7.19196
7.91388
4.06006
4.78623
7.97854
5.743
4.07657
2.43722
4.32319
3.88623
3.59305
5.60816
7.10414
6.14704
6.06292
6.60359
4.58643
9.21954
6.64321
5.96846
6.76476
3.14165
6.85009
5.24291
4.37717
6.11538
3.87278
2.85941
4.01244
3.08538
7.05791
6.07187
4.61899
5.10533
2.51386
7.5929
8.12439
4.12
7.19708
5.14306
6.29991
4.34712
3.02151
3.12499
5.21471
1.82542
2.33575
2.71983
-0.320746
3.3191
1.95146
1.9074
2.66655
5.20083
6.74356
3.98767
3.66536
5.6263
3.26978
5.51685
3.1588
1.12614
2.65258
1.3224
0.988227
1.89615
2.67233
0.599358
1.21464
3.39312
2.41521
2.68441
0.925947
2.67225
2.51349
2.10715
2.8425
3.60912
3.73374
4.66222
3.24609
0.938318
2.58944
0.666151
-0.298153
2.95969
2.86551
2.62282
4.04568
-0.534308
4.91627
3.1382
0.856232
-0.0188865
2.09878
3.30274
2.9626
4.23678
0.838996
1.57094
2.52114
4.40844
2.06999
3.8907
-1.36583
1.85323
1.16781
0.504458
1.48662
2.10073
-1.09101
1.77567
4.05495
1.8018
-0.41469
1.32389
1.8071
1.30317
4.7507
1.98071
2.64439
3.59476
2.82273
0.569123
2.53558
0.468722
-2.17299
1.39452
1.96996
0.85525
0.151524
1.49968
1.20527
1.51009
0.109784
3.62595
1.7404
0.472276
2.4351
2.11942
2.68812
0.967603
1.83944
1.85937
-1.56761
1.61781
-0.00996316
4.34218
3.08077
3.68804
3.41489
2.94443
5.41372
5.34529
3.03757
6.65026
5.73972
6.83638
7.39631
9.10076
7.20778
4.65216
4.37557
7.58445
5.1634
2.81498
2.94829
6.76901
1.2959
4.49442
1.53056
6.71029
0.215363
7.61796
0.606756
6.37355
0.472353
0.574771
5.36795
0.0685609
5.31162
0.789761
5.17798
0.771257
1.77788
-0.0665548
1.78289
2.30761
-0.0880324
2.33682
3.19734
2.76842
5.94219
3.92986
2.12106
5.75936
3.30271
1.71921
6.10921
4.10065
5.75907
3.14393
4.54732
5.35285
4.85735
3.77131
4.07778
4.53489
3.53353
1.21722
3.26878
3.83328
3.77454
4.11367
1.15545
5.99023
3.91956
7.28839
2.85977
3.07683
2.10379
4.65598
3.67752
2.48335
2.15332
4.39777
-0.0627348
2.87704
2.7149
1.66472
-1.09026
4.47891
-1.99227
1.52964
5.12072
2.27664
3.46244
4.44424
1.8821
1.11547
2.90129
3.68499
4.1093
2.43245
2.69516
4.19158
3.59796
0.0436027
0.667373
4.07095
2.60386
0.312743
2.18385
1.18483
2.73586
0.696425
2.6263
1.25824
1.76067
1.95429
1.04757
-1.387
3.64714
1.35348
1.8894
1.6543
2.72214
2.65212
1.98136
0.129396
-1.12396
2.41818
2.14961
0.819355
1.68381
1.52534
2.64197
2.04681
1.95922
1.45196
3.87829
0.538786
1.36048
1.61456
1.35657
0.951558
1.78656
0.643477
-1.67172
-1.27968
0.184427
0.638405
-0.901511
-0.229397
0.630583
-1.04975
-1.60557
0.523096
1.27495
-1.46435
-1.04783
0.956482
0.355354
-0.510856
-0.0932248
-0.397808
0.227916
3.85012
5.669
2.74216
4.50873
3.46096
3.24578
5.48666
7.49647
7.1066
7.71124
8.42932
5.08561
6.44798
2.78203
4.18135
5.93293
2.49308
3.89481
2.70301
5.71336
3.61476
4.14053
1.83107
3.1415
3.78986
3.5179
4.11124
4.34512
5.29897
4.27427
5.68442
4.50932
3.41217
4.32996
3.86286
3.83931
3.8697
4.52609
3.01705
4.32098
1.63933
2.32097
3.09403
1.71204
3.08228
4.76015
4.60692
6.94263
2.69245
5.7804
3.47656
1.89978
3.35648
4.06718
3.44873
3.44437
3.98128
-0.931363
2.31315
2.67062
3.68284
0.896465
2.21758
2.34994
1.23988
3.8111
3.91728
5.39297
5.52581
4.33774
5.85349
2.93744
3.76583
2.7313
2.68019
1.71944
2.30534
1.9313
3.78969
1.97818
2.50316
0.00765371
1.69471
2.72377
1.86096
-0.0996975
1.64886
1.9932
2.6327
1.29333
0.453812
2.2876
3.59119
2.08324
-0.0445913
1.9634
2.94983
2.19944
1.69929
3.33013
0.587973
0.802252
0.04493
2.16157
-0.161549
3.84898
2.3579
1.7201
1.23207
3.45791
3.12385
0.301178
1.17814
0.187167
0.454859
1.59101
-0.81471
1.24768
2.17001
1.16308
2.52962
1.10975
0.265159
2.50917
3.38085
1.02711
0.00130247
0.239793
-1.53482
3.00649
0.0957007
1.9939
-1.20804
1.69154
1.728
0.437888
0.140606
0.311941
-0.0908643
-0.0299928
0.160347
0.521415
-1.41388
-0.618011
2.04358
0.72814
0.433981
2.4348
0.200974
-0.731608
-1.34719
-0.272384
0.50582
1.03842
0.924377
2.27769
-1.62179
-0.809119
-0.0983417
2.17274
2.21478
2.89814
3.09767
4.46241
3.80168
3.65254
5.88807
1.90057
6.0204
6.04355
1.65465
2.51347
3.43785
4.74377
2.0826
2.18167
3.50011
4.04414
3.42515
2.70969
1.60322
1.82323
4.48039
-0.0797001
3.71479
-0.0149581
3.73864
0.998357
4.61806
0.971798
-0.0696901
3.23348
-0.248054
6.53447
-0.208891
0.0182956
-0.113459
3.27397
0.366554
2.96498
0.3525
1.11395
2.93434
4.60124
4.71211
0.0575483
3.5719
5.59381
2.80915
1.23808
2.47104
2.65342
1.82549
3.41895
2.32345
3.31846
2.28529
2.71346
-0.231677
1.40874
3.42204
4.76459
1.06262
3.65764
4.3938
3.09863
4.41525
2.25296
2.45919
-0.0997392
2.90165
2.361
2.64315
3.6432
1.88394
2.22376
1.69398
1.18277
1.01965
2.53006
3.0282
-0.616864
0.564016
0.561931
0.786306
-0.865848
0.888096
3.07365
-0.488964
1.86814
1.64173
1.42887
3.75158
1.16832
2.15628
0.981178
1.8777
-0.148244
1.45523
0.0153526
0.962361
3.02973
0.494687
0.432763
1.77992
1.0341
-0.215854
3.80131
-0.353775
1.63536
2.99614
3.21023
-0.326279
4.35748
0.783457
-0.228778
0.336787
0.0428171
-1.15635
-0.218227
2.54801
-0.205515
2.09857
1.70733
1.47482
1.35443
1.87787
1.2185
2.21616
0.948304
2.44372
0.587662
-0.0417667
-0.724816
0.413671
1.41052
1.84881
2.93734
0.264808
-0.144323
0.567785
-0.840271
0.690195
3.09617
1.52681
0.787045
-0.0338175
-0.114413
2.44553
1.00109
-0.435336
2.17937
1.84787
1.15056
-0.781466
1.07484
-0.00270825
1.18884
-0.64156
3.33573
1.38986
0.57319
0.975375
3.07678
4.09577
5.52842
4.64732
2.7423
4.38729
4.22072
4.78549
4.11675
2.97932
4.12542
0.985198
2.39323
2.2545
2.26687
3.42818
2.53867
1.3105
-0.721507
-0.577433
2.11635
3.57581
0.998225
5.77186
0.871318
1.07456
3.04125
2.41326
3.80438
1.32836
0.777317
0.76043
3.25581
0.573671
1.90893
1.81985
2.15289
0.388721
2.26889
1.37555
1.64626
2.44399
-0.332863
3.50774
2.87968
0.400265
4.06766
2.58859
2.02098
3.44497
4.60676
0.812558
3.57746
0.841633
1.17301
3.63101
-0.764169
0.398804
1.17606
-0.282567
3.53278
0.935244
-0.228643
3.64438
3.58855
4.23761
-1.34532
1.62142
2.45201
4.17628
1.01204
1.10362
3.68741
-0.0628322
2.50377
4.5252
3.48324
-1.13796
-0.496537
2.68112
2.15046
-0.21107
0.837283
1.45535
3.14529
3.19865
1.91731
3.2979
3.14628
1.47936
-1.65599
3.25064
1.82342
0.192622
-1.7891
0.0215129
1.38619
0.211993
-0.787094
0.44505
-0.988588
1.42454
0.712868
0.362925
1.24157
-1.18763
0.812259
-0.862492
0.174762
0.123336
2.64723
0.960671
1.47112
0.721312
0.950855
1.59618
0.0241049
1.77162
-0.481886
-0.756395
-0.79705
-0.113763
0.846687
0.137069
0.190745
2.22114
-0.168457
0.569645
-0.318405
-1.56025
0.706493
-0.776169
-0.986549
1.98697
-1.02449
0.911508
-0.274888
-0.0682538
-1.96603
-0.709217
-0.447837
-1.51912
-0.991865
-1.09118
-1.01713
0.204826
-0.408456
0.424697
0.552807
4.10833
1.07161
0.458387
4.10835
1.14618
0.581228
-2.16439
-0.638204
3.41842
1.73671
2.01562
0.577189
0.478253
0.313166
3.86391
1.63088
2.50372
4.92686
4.16869
3.31712
1.60245
1.99198
2.34022
2.67565
1.06571
1.87428
2.59732
2.96182
0.272685
0.115676
0.389128
0.810783
0.900993
-0.643753
4.69888
0.723644
2.28942
-0.0101027
-0.377746
4.69925
0.199987
2.31498
0.634532
3.0231
0.144585
0.653353
0.352831
2.47778
0.762343
0.725811
2.42687
1.85032
-0.0844705
2.65127
0.192166
-0.263004
-0.491753
3.4924
2.22983
2.66623
0.219817
5.28277
0.759894
1.52447
1.12571
3.19979
0.312874
1.75627
-0.0563277
-0.225341
-1.70485
-0.556956
-0.69485
1.95079
1.96705
1.36087
3.45231
1.25987
1.07505
1.54985
1.68886
3.69916
1.28144
1.50352
-0.922039
0.490453
0.657669
1.96707
1.92919
1.74605
0.0653863
-0.264426
0.705212
2.2211
-1.37429
3.02953
0.78446
0.378791
2.31112
-0.423388
-1.3306
-1.03868
-2.528
-1.934
-0.492452
-0.91127
-1.97488
1.79371
2.22534
0.980261
1.30002
-0.184206
0.697432
0.406588
3.29342
2.72648
0.580919
0.895775
1.13786
2.29528
1.48508
1.90864
0.917926
0.128294
0.692158
2.54222
-0.381056
1.34694
1.32438
1.22127
0.962653
0.619159
3.29566
3.05283
-0.707265
3.3827
0.191415
1.76346
-1.4242
-0.445504
1.12821
-1.46918
-1.49979
-1.0673
-1.27649
-0.907833
-0.479432
-1.56187
0.784387
-1.72727
-0.145009
-0.25445
-0.31075
-0.350824
2.53589
-3.00047
1.44144
0.28399
1.55701
2.23582
-0.62073
-0.681364
0.394649
-1.61319
-2.19278
0.782659
0.773461
0.90365
-1.08019
3.02411
2.74716
1.21843
2.34977
1.42675
1.25144
2.35908
-0.955198
3.25476
0.762298
1.121
2.02755
3.81767
3.52867
0.996168
-0.0336084
-0.268318
2.1465
-0.0265966
1.74905
1.37604
0.910842
3.69953
2.67777
0.855589
-0.389244
4.21247
0.568348
0.0621331
0.511771
2.12639
0.723836
2.48261
0.0160244
5.18793
2.38762
-0.0801947
1.32997
-0.723371
1.46271
0.670168
-1.03438
1.63423
2.80535
1.94603
1.66933
-0.127647
2.6797
2.51705
-0.796585
2.00544
0.835734
0.277459
3.50855
-1.74514
0.920478
-0.200636
-0.962047
2.97227
2.64485
-0.788224
0.403633
-0.649684
0.645131
0.578399
0.346914
1.74536
0.237406
3.07622
0.989139
3.39911
3.96506
-1.73336
2.65788
-0.801034
-0.0723782
-1.17794
-0.764849
1.57352
0.512442
0.758056
-0.639525
-0.408361
2.41986
-1.03845
0.975042
0.0968137
1.66953
2.38819
3.39525
-0.0480177
-1.71482
1.26283
-0.115684
-0.250099
0.48402
0.849412
-1.54921
1.15382
-1.34829
1.28668
2.29854
2.29935
-0.746793
-1.01834
0.320064
0.876737
1.84404
0.683309
3.51382
0.798875
-0.618733
-2.01295
-0.144883
0.750145
2.18787
1.25271
1.44506
2.06066
2.48166
-0.94683
1.01944
2.09672
1.78321
0.325972
-0.0551171
-0.259725
1.43304
-0.217327
3.94067
-0.619729
2.77745
0.740234
1.4471
0.734903
0.678638
0.778637
1.95938
1.60635
-1.58444
1.25905
0.414755
-1.12063
1.08331
-1.03366
1.27096
-0.519691
-1.34069
0.863431
-0.606188
-1.43607
1.57487
1.97342
-1.48517
0.109678
-0.702746
1.69908
2.31778
-1.49732
1.48249
0.221648
0.874748
2.70326
2.07831
0.735392
2.58177
0.451801
0.984115
-1.20955
1.94268
1.20559
0.205019
2.31565
0.683574
1.36994
-1.41562
-2.12042
-0.723141
-0.506838
0.269317
2.00414
0.753147
3.17215
0.0806587
-0.232237
-1.07496
-0.44956
0.324308
0.236128
-0.115981
-0.600322
-0.4666
0.482181
0.439909
2.12847
0.0324295
1.41711
-0.143781
-0.0216061
0.515147
-1.2208
-0.866578
3.118
-1.28546
-1.7636
0.0416432
1.09366
-0.502455
-1.50706
0.500591
0.714218
-0.933968
-1.48934
-0.85825
-0.102006
0.193637
-1.92911
0.101065
1.05469
-0.65021
0.799908
-0.710934
-0.798208
2.44964
-0.65094
1.31461
0.522032
0.346075
-0.507868
0.471371
3.84716
1.07004
-0.272214
-1.32138
2.05274
1.12803
-0.763406
1.24952
1.28104
-1.34972
1.09489
-0.411166
-1.92051
-1.65012
1.23979
0.443758
0.459025
0.0689247
1.50106
-0.714562
1.79571
0.772677
-2.72154
-1.90662
2.24193
-2.98908
-1.2529
0.18905
-0.94214
0.0022602
0.442482
1.37249
1.47545
-0.684313
-0.124603
-0.765744
1.37634
0.341722
0.669082
1.82464
0.458751
-1.55192
-1.2536
0.0375998
0.797457
0.256187
-0.152956
-0.0901836
-2.03439
1.40996
-0.0160145
-0.286815
-1.27608
-0.0823955
1.06135
0.44845
-1.53176
2.30527
-0.307068
1.83526
0.520966
0.532516
-2.69331
0.250653
1.04425
2.47
-1.05812
-1.39466
0.296528
0.0202558
2.16667
-0.055381
0.49696
0.525194
0.0507504
0.00679737
0.154592
1.80285
0.408132
0.727255
-1.14825
2.31713
-2.00866
-0.148099
0.403842
-1.85017
0.397516
0.971403
-1.29498
1.11603
2.45602
1.11419
1.87169
0.717212
1.1989
-0.842927
-1.05325
2.92881
-1.42581
-0.18872
1.8315
0.411654
2.73459
-0.170036
0.617921
0.178195
-0.022865
-0.72995
-2.3108
-0.749292
0.499517
-1.02901
-0.756614
0.0234362
-0.724737
-2.35096
-0.165401
1.83051
-0.626843
0.398331
0.211327
-0.545768
-0.208004
-1.73151
-0.765347
1.42984
3.10316
-0.386503
1.48172
0.515195
0.962783
-2.66074
-0.233735
-0.954959
1.77062
0.277307
-1.8935
-0.205195
-1.3438
0.0736083
-3.19532
-1.06153
0.375079
1.32608
-4.49314
0.63481
-0.376034
-1.56281
-0.944325
-0.54633
-0.774667
-0.603321
-0.0489135
-3.08236
3.52378
-0.174268
-0.931788
0.355803
-2.45581
-0.910011
0.570207
2.19148
-1.23302
0.634916
-3.33453
0.660965
1.14126
-0.166354
2.76084
-2.06409
-0.1851
0.761063
0.115007
-2.66808
0.0967052
-0.387438
-0.327296
1.62569
-0.708723
1.20092
-0.733546
-2.88719
-1.76309
1.60537
-2.17868
-1.73822
-0.546542
-3.72069
0.0191488
0.25798
1.85157
0.376153
-0.693415
-2.03915
1.07649
-0.674576
-1.14461
-0.0467348
-0.407811
0.344122
-1.37576
-0.427911
-0.790615
2.18579
-1.12212
-2.54625
0.517475
-0.364672
1.24877
0.0550531
0.0146532
-0.373483
0.195908
-1.01393
-0.149853
-0.126056
-1.08838
-0.117726
0.00556436
-1.56684
-0.839548
0.893178
-0.00655862
-1.49343
0.885035
-0.0879311
-1.28449
-0.719347
0.32152
2.41652
1.70944
2.33164
0.581558
-1.24419
-0.75411
-0.554222
-1.10028
-0.581107
2.42577
-0.204777
2.36506
0.661268
0.928687
1.15671
-0.0290296
1.64518
2.4264
1.99844
1.6785
0.689263
2.28033
-1.01935
-1.95833
0.317759
-0.830457
-0.0861005
-1.75914
-1.30053
-1.12994
0.250892
-3.29097
-1.01059
-0.655941
-2.47439
-2.59186
-2.3243
-1.80526
-0.17993
-0.622226
-1.21048
-0.168553
1.55965
1.35248
-2.06845
-0.0677953
1.68345
0.550627
-0.805714
-0.0632274
0.334232
0.611646
-0.103434
0.320291
-0.676016
-1.94006
-0.0864321
1.07333
0.303869
1.14547
-0.0535566
0.547244
-1.33623
1.74866
-0.474242
-1.17424
0.227591
0.630953
-0.244016
-0.519252
0.246987
-1.35441
-1.99179
0.159589
-1.28706
-2.7457
0.853728
2.05678
0.528381
0.211728
-0.0340161
0.128991
0.0250988
-0.819853
-2.58567
0.529135
0.0661158
0.0619054
1.18626
-0.418468
-1.15785
2.1078
-3.20497
-0.471507
-2.7801
-2.12726
0.183478
-0.61823
-0.517556
-0.271187
-0.989136
0.000704679
-1.30421
-0.575586
-1.2385
-0.960144
-0.705489
-0.520977
-0.640619
-0.246661
-1.32847
-1.38705
0.420853
-1.37376
-1.4267
-4.50193
0.0236954
-0.0179013
0.418189
0.454632
-1.46691
-1.90051
0.497058
0.736691
0.112633
-0.511094
-0.813709
-3.16971
1.19047
1.65382
0.649847
0.28279
2.23284
-2.62633
-1.04549
-0.844176
0.231337
-1.43897
0.0938337
-1.03181
-0.0805627
-0.941722
-0.584584
-0.127867
0.451617
-1.27633
-2.18685
-0.880102
1.23798
-0.722594
-0.84931
-1.85288
-1.13488
1.95248
-1.26387
-1.18553
-1.06359
-1.85138
-1.64447
-0.523777
1.67961
-1.20807
0.343831
0.65734
-0.16942
0.22053
0.846758
-0.49007
-1.81276
0.350635
0.32859
0.602834
1.97682
-0.169498
-0.995642
-2.01799
-1.0475
1.06435
-2.15199
-0.226837
0.00106669
-1.12318
0.364739
-3.50113
-2.31824
-0.0584532
-0.0597221
-2.74682
-1.27874
-2.5267
0.326841
-1.2575
-1.30796
-3.53032
-1.0401
-2.99758
-1.55309
-3.29799
-4.23558
-2.67361
0.0676096
-1.21737
0.0628143
-0.883672
-2.99028
-0.547788
-0.559678
-0.00260102
-1.66393
-0.0281482
-0.199942
-1.45531
-0.66678
-3.83418
-0.148809
-0.937871
-0.455846
-1.57419
0.782397
-1.33407
0.672288
-1.0285
-3.05614
-0.41514
0.416068
-1.46245
-2.03095
-1.64982
0.331028
-2.85755
-1.42407
-1.68132
-0.204819
-2.95902
-2.31458
-1.31196
-0.236516
0.919391
-0.795492
2.0133
-0.879493
1.66012
0.589183
-0.359998
0.420345
0.97043
0.961663
-0.892562
0.0638227
-0.410826
-2.72759
-0.26266
-2.13014
-3.12741
-4.25274
0.407679
-0.262932
-1.51218
0.209281
-2.49069
1.1628
1.91398
-1.64805
0.832331
-1.38802
2.30438
0.280943
-0.0307051
-0.668892
-1.39756
-1.90033
-2.53866
-0.547414
-1.29997
0.344928
1.87433
-2.94654
0.449615
-2.27248
0.824265
-3.07288
-0.80859
-1.14684
-3.05318
-1.47197
-2.16243
-0.267797
-1.57747
1.35337
-0.406276
0.761463
1.41674
-0.985336
0.707047
-1.03704
1.1468
-1.97974
-0.601511
-0.617561
-2.40088
-0.303744
-1.97789
2.2729
-0.438691
0.752484
-2.18205
1.36826
-2.09027
0.283387
0.687164
-0.0250464
-1.40142
0.841314
-0.588912
0.886448
0.741172
-0.959034
-1.09082
0.684593
-1.89824
-1.29329
-1.69069
-0.891381
1.10984
-0.515383
1.35707
0.660139
1.59237
0.0285278
-0.25759
-1.23445
-0.362883
-1.15002
-0.513272
-0.239164
-0.192099
-1.06365
1.2368
0.342141
-1.81315
1.0982
0.990798
-2.8038
-2.24544
-0.500568
-0.844701
-2.62966
-1.75005
-0.52701
-0.454871
1.06758
-2.15029
-0.722517
-3.40939
-4.52248
-1.94715
-0.285828
-1.77551
-1.72906
-1.10573
1.72362
-2.20391
1.94171
-0.36207
-2.08604
1.14301
0.394443
-1.96228
-1.67179
-2.12123
-2.38152
-0.33658
-1.94223
-0.968121
-1.22229
-0.7508
-2.56385
-2.92838
-2.73999
-3.50245
-0.781102
-1.98926
-1.78393
-0.701165
-1.05943
-0.534372
-2.17018
0.530809
-2.17617
-0.938787
-1.85007
0.809029
0.254769
-2.37375
-3.37405
-2.38043
-2.70789
-3.92612
-1.21196
-3.81659
-2.24919
-1.83527
-2.59019
-1.39794
-0.39984
-1.48089
-0.0506809
-2.21158
0.158194
-1.56064
-1.34108
-0.8237
-1.38666
-2.88616
0.474176
-1.21904
-2.38734
-0.510031
-0.328644
-0.89927
-0.649274
-1.47864
-2.85753
-0.390252
-1.27965
0.653795
-1.85364
-1.30235
-1.16438
-2.26
-0.977225
0.0843272
-1.30003
-0.645382
-2.28127
0.549801
-1.00164
-3.60286
-1.65409
-1.26024
-0.410566
-2.5848
-1.3517
1.30705
-0.508827
-1.12078
-1.31026
-0.0640224
-1.08268
-1.46146
-1.87413
-0.321231
1.60725
-0.0712803
0.615348
-0.746699
-0.934179
0.820298
-0.840128
-0.880196
-0.0611515
-0.0515442
1.00025
1.30938
-1.59789
1.45854
-0.910595
-2.56661
0.240224
-3.3689
-0.936166
0.868163
1.22667
-1.63999
-0.0464061
2.96835
2.33389
1.11544
-1.60702
0.0557562
-3.22396
-1.01849
-2.26264
1.23584
-0.678279
-0.413269
0.837627
1.25488
-0.99958
0.84146
0.0542615
0.258895
0.266925
3.03337
-1.06636
0.681382
1.7549
-0.944937
-0.742235
-1.51788
0.575741
0.457415
-2.76142
-1.84873
-0.826559
-0.196594
-3.74736
0.873587
-2.97523
0.372653
-1.42918
-2.25276
-2.11109
-2.58866
-2.16908
-1.55088
-4.41235
-3.4478
-1.41518
-1.61102
-2.4067
1.06904
-1.77117
-1.18777
-1.31244
-0.198618
-1.69497
0.150842
-2.38084
-0.522162
-0.109976
-2.33448
-0.216755
-3.78263
-1.35161
-2.72377
0.0200271
-3.58596
-0.578479
-0.810271
-0.96917
0.28578
-0.195271
-0.872034
-0.534238
-2.01011
-0.410399
-1.91874
-1.27785
-1.65736
-0.759769
-2.99954
-3.64125
-2.54259
-2.68985
-1.43698
-0.849431
-1.36486
-1.05453
-3.40628
-0.0291698
-2.47554
-1.58518
-1.43979
-2.81882
0.871692
-2.53289
-1.75099
-2.79082
-3.58489
0.357159
-1.10269
-1.88471
0.0256826
-0.528266
0.322237
-2.59376
-0.253786
-4.18532
-1.33746
-0.903102
-0.260863
-2.47067
-0.866805
-1.43263
-2.28015
0.0970766
0.967323
0.393253
-0.842573
-1.23667
-0.70144
-0.784103
0.508299
0.226947
-1.65012
-1.25327
-0.90377
-1.58447
-0.63779
-1.6139
2.35294
-0.127319
-0.475777
-1.39193
0.56235
-0.508171
-0.275142
-3.63559
-2.06348
-1.29213
-0.268371
-1.75076
-4.07095
-0.285063
1.68254
-0.699073
-0.0293207
-0.968696
2.62752
-1.10621
-2.12833
-1.57446
-1.48696
3.25247
-1.89482
-1.48966
-0.121884
-2.52594
0.676501
-0.27604
-2.00443
0.508462
-0.276732
-0.485481
0.252565
1.43264
-1.94264
0.812326
2.33721
2.13192
-1.08577
-1.31068
0.961702
-0.60509
-0.794889
0.924936
0.44882
0.553851
-0.00970603
0.848909
1.4801
1.19037
0.826719
0.362335
-0.268952
0.292947
0.0635309
-1.28525
-2.50601
0.174906
-2.46496
-3.26139
-0.480706
-1.31791
-0.920912
0.362125
-0.531769
-3.05477
-3.79696
-3.4808
-2.86833
-1.81367
-1.94497
-2.33691
-3.01964
-3.53967
-3.51452
-2.29035
-0.788982
-2.94652
-0.823243
0.151584
-0.558305
0.774157
-2.47902
-3.57652
1.75601
-6.68527
-1.73735
-2.5426
-1.62598
-2.17485
-3.06075
-2.47143
-3.86104
-2.47233
-2.94796
-2.9673
-3.6597
-2.66452
-1.50219
0.947152
-0.276
-1.82117
-2.67003
-2.42671
-2.70168
-3.48643
-4.8513
-2.70481
-0.794438
-2.49928
-0.67611
-2.70229
-0.262712
-1.34656
-2.62791
-1.92021
-0.496058
-1.91559
-1.90169
-1.62035
-1.80049
-1.70733
-1.95282
1.24977
0.713797
-2.23107
0.0293576
-2.55506
-2.42117
-3.19161
-0.478674
-1.70443
-1.49372
-0.667668
-1.11877
-2.64487
0.300909
1.47526
-0.774144
-1.20168
-0.95868
-1.56757
0.899969
-1.03046
-2.55242
-2.06344
1.79841
-1.04182
-0.135486
-2.54558
0.184215
0.237137
-3.00928
-4.2717
-3.12177
0.619749
0.398924
-0.137356
-3.09353
1.33701
-0.531458
-1.53952
-0.928036
-3.1888
-0.654589
-2.57661
-1.0338
-1.81842
-0.163131
-1.95455
-0.6124
-2.35878
-0.437472
-0.202115
1.44685
-1.65315
-0.125219
1.30822
0.265234
-1.16868
-0.648242
-1.81444
-0.141355
-1.53044
0.221591
0.983973
0.973796
-2.16702
0.0111231
-1.06584
-2.13072
-1.56849
-0.246956
-0.390134
-1.2549
1.65789
-1.50379
3.57754
2.02405
0.67808
-1.29425
1.26746
3.13598
2.16833
1.25229
1.75615
-1.29575
-1.05318
0.63343
-1.99824
-2.80448
-0.852881
1.03878
2.07599
0.866088
-1.01932
0.442816
1.10633
0.244166
-1.72169
-2.45427
-2.29308
-1.70167
-1.84066
-1.83925
-1.70945
-1.88226
-2.33691
-1.34195
-1.85711
-3.86429
-1.7992
-2.20094
-1.47753
-1.84873
0.159926
-3.31948
0.763988
-1.10441
-0.219017
-0.427161
-4.62834
-0.0820991
-3.4607
-0.0670982
-3.55083
-0.386179
-0.0602849
-0.991959
-0.437975
-1.22955
0.119818
-4.64286
0.226823
-3.16607
0.228068
-3.95015
-1.24919
-2.46032
-1.05312
-2.77815
-1.83889
-0.160654
-1.05131
-4.55595
-2.04725
-1.61468
-2.08537
0.567514
-3.86405
-3.3784
-0.985847
-3.92037
-1.86949
-3.36972
-1.90958
-0.994494
0.248942
-0.483901
-1.07761
-0.957407
-0.541804
-2.32876
-0.716954
-2.38951
-1.77888
-3.08106
-1.19826
-2.88108
-0.373848
-2.32641
-4.88915
-4.11268
-3.71319
-1.47461
-1.91865
-2.59773
0.597849
-2.33524
-0.90162
0.861034
-1.67852
-1.85079
-2.28369
-2.1054
-2.3835
-0.832177
1.07836
-0.387906
-0.433916
-3.79853
-5.07389
-1.83017
-1.50629
-0.643097
-2.40222
-0.569553
-0.636063
0.762631
0.390045
-0.876247
-0.600104
-2.91179
-1.90845
0.887815
-2.92193
-3.70524
-4.26141
-1.95878
-0.049294
1.30945
0.275161
0.0710976
-2.73036
-1.89331
-2.64474
-1.73524
0.969773
0.322835
0.117238
0.327717
-0.695029
0.557674
-2.25018
-0.600066
-0.854923
0.563835
1.65252
-1.70107
-2.02731
-2.53857
-4.78324
-0.102814
-2.83099
-1.35921
0.105049
-1.16965
-1.39738
2.46245
0.690768
0.852722
-0.756441
2.17454
-0.808489
0.160788
-0.910345
0.878357
-1.15672
-1.80507
1.4567
-2.44868
-2.0406
0.888131
0.362353
-0.966172
-3.10032
-1.39801
1.16388
-0.830417
-3.84408
0.329536
-1.13159
0.631597
-2.22559
-2.42254
-2.55343
0.25997
-4.32234
-2.5158
-3.27658
-4.07795
-3.90508
-5.82693
-3.38371
-1.42576
-2.33836
-1.04596
-0.526277
-2.27093
-0.50581
-1.5095
-1.10832
-3.14746
-3.22299
-2.15712
-1.60802
0.706964
-0.919829
-3.64839
-3.7155
-1.8598
-2.77788
-1.33936
-2.34118
-1.82694
-3.72382
-0.902392
-1.22479
-1.82226
-1.49996
-0.409512
1.05975
-1.65774
-2.25181
-4.04502
-2.00064
-1.89887
-5.12529
-2.57493
-2.09814
-2.40916
-1.28879
-1.29353
-2.1508
-2.29696
-1.72477
0.12189
-0.133553
-1.03825
-0.310331
-1.83832
0.138384
-0.535069
-1.18312
-0.754967
-2.00856
-0.556
-0.966197
-1.45619
-2.55164
0.214395
-1.4864
-2.31483
0.228643
-2.92723
-3.91296
0.888145
-1.32943
2.48988
-0.301556
-0.769504
-0.0348323
-0.846756
-1.17744
0.0229871
-2.41786
-3.15791
-1.64408
-3.22436
-3.57094
-1.02317
-1.07495
-2.24516
-0.910265
-2.96625
0.852766
-1.67493
0.181759
0.342664
-0.241351
-1.72432
-2.30187
-2.64742
1.53174
0.697405
-4.32463
-0.701435
-1.14263
-1.22535
-1.74784
-2.01736
-2.07533
0.963371
-1.62765
-0.0786432
-0.475867
-2.21139
1.50642
-1.88034
1.1487
-1.72851
-0.967517
-0.154841
-2.52823
0.136706
2.62912
-1.0151
-1.82254
-1.40095
0.0976959
-0.258814
-0.296319
-3.14147
-0.705119
-0.255058
-1.41791
-1.06793
1.10632
-0.219921
-0.910821
-2.41556
1.01352
2.50144
2.31989
-0.338528
0.635156
-1.38464
0.758402
-0.0637632
-0.878059
0.625152
1.16121
-0.432779
-0.104203
2.58653
2.84793
1.91531
0.555762
0.480414
-0.047037
-0.662728
-1.89208
-3.68972
-1.95408
-1.97817
-3.4055
-0.769931
1.15909
-1.54427
-4.95579
-3.38591
-2.41633
-2.15426
-1.58994
-1.17964
-1.73418
-2.08077
1.15977
1.12959
-1.57835
0.549525
-2.56016
-0.153011
-1.04781
0.0469565
-3.72207
-0.470506
-0.754067
-1.63884
0.0493677
-1.34438
-0.17281
-5.27611
-0.37591
-1.05686
-0.569743
-1.28744
-0.832029
-0.742429
-1.55083
0.671523
1.47055
0.90519
1.10485
-0.662695
-2.35691
-2.51722
-0.522578
-0.0227122
-2.26295
-3.42935
-0.775602
-5.01561
-0.974624
-2.34059
-0.977356
-2.46806
-0.570468
-2.94787
-2.45936
-4.24852
-2.2016
-2.08331
-1.09041
-0.620293
0.675037
-1.67111
-1.61726
0.596382
-1.9455
-2.00699
-3.10602
-2.89514
-0.443247
-3.4375
-2.84707
-0.814449
-0.13947
-2.02925
0.168545
1.07412
-2.14344
1.88965
-2.09119
-1.27787
-1.86979
-1.87366
-1.23196
0.318884
-4.64109
-2.47222
0.104757
0.234821
-3.15363
-0.0615274
0.758894
0.330908
-0.279027
-1.187
0.378407
-0.696142
2.45941
-1.22151
1.51566
0.0138969
-0.0187409
-3.28341
-0.370559
-2.05646
-3.02436
-1.5696
-1.69387
-0.973477
-0.287699
1.33095
2.49896
-2.96712
0.572058
-1.21738
0.287739
2.48691
-0.824639
-0.324378
-1.84216
-0.715739
-2.02958
-0.437417
-2.20246
-0.146443
-1.17578
-2.05583
-0.00757526
-0.690799
-0.11829
-0.248238
2.23156
-0.210248
-1.59677
0.299499
-0.462156
2.38978
1.7001
-0.0861241
-0.660041
1.46526
-2.15831
-0.34947
-0.431556
0.938762
2.38971
1.00731
-0.167814
0.562246
-0.653164
-1.10924
-1.40732
-1.09125
-1.29495
-0.196884
0.116128
-2.78038
-1.72777
-2.20931
-2.56369
-2.41559
-1.50904
0.550772
-0.473816
-3.03491
-1.48295
-0.967759
-0.902224
-1.46101
-2.26501
-1.12166
0.298083
-1.44136
1.37543
-1.46447
-2.53296
1.99856
-1.87297
-0.820212
-3.10196
-0.612195
-0.205495
-1.71101
-1.65039
0.817043
-1.1852
-4.19919
-1.69772
-3.31196
-2.53153
0.606513
-2.86556
-1.62201
0.440773
-0.65942
-2.75374
-1.88668
-0.244119
-2.38379
0.502735
-0.53221
-2.6508
-2.99248
-4.08378
-2.56153
-2.13088
-1.5817
-0.56758
-2.4587
-1.3001
-1.69457
-2.31828
-1.0222
-0.460382
1.99921
1.58595
1.89587
1.34927
1.81096
-3.51986
-0.937207
-0.859805
-0.639149
0.397923
-3.68585
-3.0293
-1.97624
-0.772255
-2.69901
0.155831
-0.338274
-0.667379
-1.01014
-1.06009
-0.532838
-1.0428
-1.05905
-0.73056
0.0831005
-2.67245
0.621836
-4.65544
-3.52238
0.172909
-0.0213832
-1.69112
-1.95914
-4.37348
-2.29692
-0.848006
-1.28918
-1.74471
2.08084
-4.41892
1.30949
0.0626597
-2.53503
-0.617758
1.40717
-0.409386
-0.0926668
-1.16298
0.81635
-2.49725
0.296098
-2.88706
0.0226119
-1.35076
-0.635594
0.911978
0.213468
-1.31879
-0.621349
0.109524
-1.05456
1.36662
-1.27226
-0.498826
1.07997
-0.599476
0.937151
-1.04731
-0.0872085
0.915331
-3.38323
0.289822
-1.63368
-0.34934
-1.21555
-0.573056
0.16142
0.459349
-0.503341
-2.56235
-0.393566
1.99962
-0.841401
1.45157
0.870673
-0.961881
-0.279916
1.08491
-0.563038
0.375283
-1.21218
-1.24186
1.13186
1.11875
-1.65954
-0.270483
0.0404409
0.321454
-0.607263
3.69029
-1.88254
1.28167
-2.82945
1.69069
-0.0112241
-2.93291
-3.45651
-1.19075
-3.34693
-3.29447
-2.62155
1.44662
-5.97213
-0.0170477
-1.53199
-4.54365
-1.16386
-0.481218
-0.978803
-0.483811
0.0241144
0.562233
0.829561
-0.938469
0.378886
-4.31544
-0.767062
-1.46526
0.261349
-0.90003
-2.2378
0.756691
-1.00172
0.218506
-2.57122
-0.335626
-0.55709
-0.43645
-0.322035
1.42473
-0.928077
3.58387
1.04989
0.23154
1.23261
-1.42963
-0.676906
-2.67088
-2.28135
-1.0378
-4.24094
-2.83461
-1.34147
-0.550331
-0.767327
-0.754766
-1.73858
-1.1983
0.632234
-1.56881
0.907152
-1.19997
-2.00151
-1.19011
-1.42252
-0.871869
-1.45944
1.33207
-2.69362
-2.53814
-3.26477
-2.20213
-2.48551
-1.4776
-1.76514
-1.04829
0.0760861
-1.79118
-0.57701
0.825005
1.11588
-3.39833
-1.93348
0.27476
-1.50039
0.958563
-1.95371
-0.172376
-2.22921
-3.22835
-0.557596
-0.523547
-1.45691
-0.454199
-2.25378
-0.94168
-1.48671
-1.57857
0.235162
0.925831
-2.03322
-2.31357
-2.47822
-0.68963
-1.46831
0.890002
-0.158862
-0.671676
0.254228
-2.49683
-1.30605
0.448847
-2.01712
0.351466
-1.74704
0.724646
-0.318717
-0.103777
-0.50589
-0.375944
0.39406
-1.13197
-0.042582
-0.622404
-0.850402
2.28894
-2.02547
-2.80688
-1.52722
-1.85244
1.29173
0.367665
2.17465
-1.00933
1.24771
-0.00611372
-0.348232
0.975446
-1.60249
1.72282
-1.85908
-0.556091
0.461725
0.846006
-3.1286
-1.66768
-0.739918
0.867058
-0.584163
0.125139
-0.977384
1.82995
-0.175855
-1.30673
1.69705
-3.58279
-0.363398
1.64477
-1.83404
0.845934
2.08495
1.93393
2.55555
0.808457
0.266348
-0.525779
-2.48758
-1.5205
-0.0505238
-5.67245
-1.40967
-1.02836
-2.44181
-0.822021
0.927331
-0.623175
-1.71111
0.0740722
0.847469
3.05477
1.65981
0.0510327
0.382076
1.10057
-2.59656
-2.39297
-1.19579
-1.42402
0.347822
-1.37867
-2.36102
-2.10221
-1.58112
1.48354
0.632451
0.999665
-0.345298
-4.22489
-1.73927
2.93056
1.99246
1.29001
-0.545859
0.0761915
0.713478
-0.925165
-0.494478
1.70218
-2.92562
-1.95789
-3.20773
-3.55203
-2.82612
-2.05261
-0.476902
0.113735
0.117277
-2.03744
-1.20213
1.74433
-0.0565491
-0.343955
-1.62957
0.772503
-1.04276
-1.18771
-1.25301
-1.13376
0.0255567
-1.0214
-3.02679
1.15659
-1.32709
-0.683572
-2.7376
-0.283287
-2.56177
-3.02073
-0.542782
0.118408
-2.06229
-3.53952
-1.07489
-1.22092
-1.42927
-2.27573
0.676956
0.422257
1.09988
-1.59235
-2.31878
2.00635
-0.8741
-2.23934
2.53316
1.88816
1.28663
-0.234693
-3.17922
1.45214
-0.379809
-1.23728
-1.42549
-0.419871
-0.136734
-0.663972
-1.34061
-1.57222
1.02941
0.828928
-0.963482
-0.218709
-2.24239
-0.878225
0.231768
-1.66595
0.621933
-1.02132
1.4009
-0.458537
1.43971
-1.78571
-1.60624
1.72371
0.423633
-1.26865
-2.17219
3.06274
-1.12273
0.68629
1.22576
-2.95798
-1.36975
-0.403503
-0.092148
-0.313298
-1.15568
2.01315
-1.37981
-0.142457
4.52403
2.0136
-0.653979
0.417549
0.908197
-1.16553
0.524398
-1.05107
1.4512
-0.682204
-1.5085
-0.935982
-0.020957
0.780054
1.28816
-0.553244
0.475947
0.588645
-1.7422
)
;

boundaryField
{
    hotSide
    {
        type            calculated;
        value           nonuniform List<scalar> 
400
(
3.07559
3.56608
3.06409
1.41388
0.569175
2.5731
-1.95496
0.57352
0.168164
-0.30213
-1.03845
0.00603475
-0.573564
-1.03598
-0.170548
-0.183359
-0.866186
-2.79593
2.10596
-0.826034
5.65978
2.3201
4.89815
2.11207
-0.233114
0.905243
2.16259
-0.674728
1.52007
1.30012
-2.15223
-0.0916118
-0.68283
-3.66747
-1.02497
-2.17053
-0.934985
-1.69186
-3.46136
0.418025
3.66149
2.94406
1.9877
2.32757
0.184518
1.19896
1.89975
-0.00827792
0.190779
-1.98782
-0.653385
-3.8761
-3.89233
-4.4553
-2.98294
-5.17698
-1.45584
-1.37282
-0.291653
0.272008
6.81579
2.68857
3.7716
3.70916
2.30215
-0.223961
0.385717