/*--------------------------------*- C++ -*----------------------------------*\
| =========                 |                                                 |
| \\      /  F ield         | OpenFOAM: The Open Source CFD Toolbox           |
|  \\    /   O peration     | Version:  2212                                  |
|   \\  /    A nd           | Website:  www.openfoam.com                      |
|    \\/     M anipulation  |                                                 |
\*---------------------------------------------------------------------------*/
FoamFile
{
    version     2.0;
    format      ascii;
    arch        "LSB;label=32;scalar=64";
    class       volScalarField;
    location    "./ITHACAoutput/true/7.6";
    object      error;
}
// * * * * * * * * * * * * * * * * * * * * * * * * * * * * * * * * * * * * * //

dimensions      [0 0 0 1 0 0 0];

internalField   nonuniform List<scalar> 
3200
(
-5.54475
-3.30813
-1.40685
-0.0371782
0.735015
1.12127
1.34418
1.34205
1.36916
1.37744
1.36839
1.54145
1.799
2.04332
2.18475
2.29391
1.99159
1.14072
-0.452378
-2.38004
-4.65349
-2.8494
-1.17697
0.0434907
0.670606
1.02914
1.20936
1.28638
1.25775
1.24594
1.2538
1.43494
1.66705
1.89882
2.0257
2.14677
1.83257
1.12424
-0.297275
-1.87796
-3.78962
-2.31491
-0.846034
0.0755675
0.580238
0.931907
1.02747
1.14996
1.08536
1.20812
1.14955
1.28927
1.51664
1.6116
1.7999
1.83924
1.67364
0.960485
-0.128145
-1.47532
-2.99228
-1.83396
-0.710279
0.178542
0.574762
0.8708
1.00764
1.00483
1.01555
0.985474
1.01466
1.0764
1.1616
1.31107
1.5565
1.55808
1.4346
0.828433
0.00751233
-1.05534
-2.32722
-1.44264
-0.463117
0.157759
0.500965
0.658554
0.796395
0.768167
0.754243
0.8212
0.804477
0.886675
1.00315
1.14683
1.22498
1.23703
1.15895
0.7077
-0.0253162
-0.801052
-1.60476
-0.965732
-0.340796
0.0772801
0.306105
0.543892
0.535643
0.673634
0.557525
0.508011
0.572765
0.624599
0.73863
0.828026
0.945873
0.885031
0.813451
0.515055
-0.0557931
-0.535143
-0.914404
-0.574862
-0.227676
0.125017
0.189239
0.261116
0.289699
0.34636
0.303289
0.382072
0.346176
0.382667
0.368274
0.516363
0.521834
0.594591
0.590391
0.317297
0.00475347
-0.344854
-0.343308
-0.208077
-0.0479326
0.0867939
0.0626366
0.0398997
0.120247
0.107355
0.130083
0.129842
0.13898
0.0881745
0.226234
0.132846
0.175218
0.093387
0.13283
0.154789
-0.0267925
-0.100724
-5.51762
-3.4152
-1.41585
-0.125541
0.573464
0.900799
0.933445
0.956598
0.867522
0.788991
0.869726
0.986484
1.23323
1.58362
1.88224
2.04895
1.82942
0.908009
-0.532232
-2.52982
-4.66886
-2.86797
-1.22464
-0.168085
0.502161
0.851342
0.975978
0.901559
0.875936
0.842202
0.840288
1.01258
1.17697
1.46537
1.72382
1.80648
1.65736
0.925454
-0.410646
-2.03304
-3.74272
-2.36531
-0.854032
-0.0375693
0.599057
0.774382
0.863961
0.858741
0.847886
0.735032
0.841367
0.854918
1.04028
1.3515
1.57639
1.64189
1.50026
0.8664
-0.260722
-1.54003
-3.11045
-1.8583
-0.756984
0.0412258
0.473092
0.684525
0.738995
0.778428
0.663269
0.73196
0.69685
0.744251
0.864815
1.16663
1.34005
1.38001
1.23201
0.77904
-0.0659642
-1.1246
-2.29152
-1.42726
-0.549186
-0.0259857
0.375187
0.549155
0.605457
0.56761
0.60353
0.538827
0.642855
0.732961
0.809611
0.907005
1.07134
1.07182
1.02266
0.677253
-0.115
-0.864537
-1.58774
-1.02163
-0.418268
0.106446
0.315893
0.422591
0.439134
0.436279
0.435378
0.374938
0.451156
0.47475
0.653533
0.623271
0.776395
0.827973
0.718685
0.487704
-0.0455292
-0.480808
-1.01953
-0.524183
-0.28692
0.0334488
0.138997
0.251042
0.32823
0.254856
0.32287
0.238682
0.247778
0.223891
0.365385
0.406918
0.544346
0.542305
0.444469
0.193719
0.00850902
-0.301185
-0.338028
-0.195812
-0.121307
-0.0960983
0.0196261
0.0040537
0.142363
0.0887811
0.121369
0.0478559
0.0939923
0.090069
0.125966
0.153858
0.149691
0.119739
0.156484
0.141805
-0.0112788
-0.176379
-5.64731
-3.54616
-1.73416
-0.494235
0.222659
0.496109
0.421305
0.373894
0.210286
0.0344736
0.0262741
0.18847
0.522635
0.902776
1.2682
1.50285
1.35389
0.687622
-0.875559
-2.71124
-4.75801
-2.96692
-1.35739
-0.303999
0.254367
0.574302
0.533777
0.378879
0.289303
0.150767
0.15036
0.27532
0.564676
0.864516
1.27494
1.34982
1.29606
0.643044
-0.553726
-2.24668
-3.87922
-2.48117
-1.07812
-0.194963
0.205555
0.421453
0.507659
0.445627
0.221775
0.221811
0.269601
0.35544
0.472493
0.87558
1.11748
1.22548
1.16302
0.587598
-0.401943
-1.54872
-3.13502
-1.9043
-0.880119
-0.176156
0.2173
0.335031
0.415234
0.439046
0.272784
0.217925
0.237952
0.272362
0.472653
0.724056
0.859989
1.06937
0.980882
0.561871
-0.32676
-1.29939
-2.39268
-1.4264
-0.612169
-0.110488
0.241177
0.369772
0.336551
0.302734
0.256253
0.299509
0.189832
0.261125
0.41152
0.592369
0.78319
0.851859
0.78588
0.390276
-0.193674
-0.9333
-1.68942
-0.988245
-0.410804
-0.0227593
0.160449
0.149159
0.244385
0.271072
0.179454
0.0905393
0.210736
0.150371
0.246763
0.476104
0.564411
0.704472
0.567649
0.310283
-0.091336
-0.616426
-1.03104
-0.640607
-0.307334
-0.126171
0.136417
0.203553
0.226525
0.151245
0.215417
0.0698378
0.139889
0.155045
0.129136
0.2509
0.31431
0.288718
0.41384
0.202973
-0.055161
-0.439233
-0.337933
-0.263139
-0.0679209
-0.0223789
-0.0123197
0.0117365
0.0293283
0.0704524
0.0418371
0.0932105
-0.0320876
0.046642
0.0682026
0.0569222
0.142266
0.178612
0.15551
0.0446545
-0.00872529
-0.133181
-5.89292
-3.87134
-2.03373
-0.907821
-0.329153
-0.0765629
-0.180245
-0.42825
-0.665975
-0.83743
-0.827512
-0.776238
-0.482679
0.066014
0.492257
0.883726
0.845235
0.0280498
-1.32553
-2.99582
-4.97247
-3.1932
-1.6315
-0.64748
-0.171922
-0.079131
-0.0957224
-0.20997
-0.475767
-0.594448
-0.632804
-0.611291
-0.192928
0.159841
0.583347
0.819775
0.784667
0.164514
-1.01246
-2.53355
-4.11387
-2.6695
-1.35681
-0.517642
-0.0148086
0.0378923
0.0851373
-0.151917
-0.274042
-0.457628
-0.468935
-0.424512
-0.109221
0.243158
0.558681
0.81701
0.675874
0.244376
-0.752639
-2.00903
-3.21157
-2.13862
-1.08585
-0.40397
-0.00387625
0.193226
0.0248514
-0.0573144
-0.257807
-0.293154
-0.328111
-0.308565
0.0212289
0.272348
0.535122
0.726642
0.547141
0.174098
-0.580332
-1.56946
-2.53485
-1.70933
-0.807247
-0.272739
-0.0132903
0.0339603
0.0872031
-0.0616881
-0.168315
-0.216697
-0.276612
-0.116298
0.0262224
0.175859
0.47087
0.60229
0.538798
0.259196
-0.386448
-1.071
-1.81454
-1.14462
-0.59927
-0.234862
0.0502388
0.0496345
0.21268
0.0643518
-0.0781158
-0.0935264
-0.101708
-0.0597568
-4.79883e-05
0.199827
0.258341
0.430257
0.398698
0.157285
-0.292661
-0.800728
-1.11751
-0.648044
-0.404011
-0.0816128
-0.0480998
0.0295479
0.10694
0.0586418
-0.0456381
-0.0762312
-0.105978
-0.0201928
0.102933
0.135679
0.176455
0.319178
0.204531
0.0880751
-0.13847
-0.462968
-0.38765
-0.240796
-0.154413
-0.0249106
0.0155931
0.0246441
-0.00994614
-0.00204832
0.0297801
-0.000492641
0.027789
0.00142091
0.110669
-0.0239695
0.0989005
0.0926412
0.0762073
0.0989675
-0.0152038
-0.0845916
-6.27591
-4.30674
-2.4241
-1.38524
-0.840635
-0.677152
-0.89861
-1.16885
-1.54566
-1.79336
-1.92341
-1.81751
-1.34821
-0.857043
-0.292223
0.0832356
0.0162985
-0.639102
-1.93935
-3.61467
-5.22756
-3.58011
-2.09917
-1.02269
-0.627725
-0.544806
-0.713076
-0.967101
-1.23612
-1.46824
-1.54044
-1.3755
-1.11668
-0.628692
-0.174862
0.186056
0.185282
-0.453803
-1.51488
-2.97009
-4.34081
-2.93327
-1.73296
-0.938101
-0.540213
-0.36087
-0.527336
-0.739171
-0.922871
-1.03504
-1.18789
-1.16553
-0.800197
-0.369336
-0.0708734
0.285662
0.224265
-0.189369
-1.21353
-2.38174
-3.42838
-2.39778
-1.40279
-0.710064
-0.355077
-0.214306
-0.364428
-0.556695
-0.733411
-0.892025
-0.919276
-0.813893
-0.538261
-0.253102
0.0726008
0.229484
0.189695
-0.199047
-0.955095
-1.80309
-2.67213
-1.81914
-1.049
-0.537523
-0.225664
-0.144605
-0.233458
-0.263654
-0.469851
-0.597559
-0.743166
-0.537585
-0.446785
-0.208033
0.0860706
0.270425
0.200893
-0.0618602
-0.695855
-1.39099
-1.83885
-1.32665
-0.698722
-0.359411
-0.135252
-0.0868989
-0.16835
-0.255144
-0.330149
-0.43521
-0.466399
-0.460876
-0.241173
-0.0735836
0.129842
0.107372
0.147277
-0.0368914
-0.474317
-0.9698
-1.13352
-0.776252
-0.472154
-0.20887
-0.111597
-0.0443932
-0.0878239
-0.150851
-0.234436
-0.207701
-0.258507
-0.226419
-0.107151
-0.0453527
0.0720557
0.0969032
0.1662
0.0264717
-0.254783
-0.546735
-0.369612
-0.300831
-0.138457
-0.0491587
-0.0693089
-0.0825538
-0.0146531
-0.0873751
-0.0718285
-0.093119
-0.145035
-0.142342
-0.116556
0.0255131
0.0636492
0.0493334
-0.0361045
-0.067824
-0.0469742
-0.236513
-6.59895
-4.79847
-3.03426
-1.97123
-1.50341
-1.38497
-1.6075
-1.96754
-2.45464
-2.82044
-2.98299
-2.91532
-2.38571
-1.85752
-1.17819
-0.737577
-0.791413
-1.35989
-2.61637
-4.18928
-5.49115
-4.01561
-2.63746
-1.59005
-1.20703
-1.15154
-1.27289
-1.60248
-2.0182
-2.31836
-2.40778
-2.33367
-1.94035
-1.49772
-0.905605
-0.583043
-0.561323
-1.09129
-2.08419
-3.39368
-4.5837
-3.29639
-2.09795
-1.33432
-0.924391
-0.861413
-0.954364
-1.28326
-1.61369
-1.86861
-1.89226
-1.78374
-1.53218
-1.02635
-0.607626
-0.42878
-0.383923
-0.79902
-1.69465
-2.7273
-3.70793
-2.63432
-1.60525
-1.0382
-0.804758
-0.69611
-0.724753
-0.982829
-1.24103
-1.47392
-1.5343
-1.39224
-1.17387
-0.82845
-0.480946
-0.294579
-0.268843
-0.609291
-1.25452
-2.22503
-2.8512
-2.0374
-1.24274
-0.819987
-0.428848
-0.555536
-0.576367
-0.732537
-0.971304
-1.084
-1.11891
-1.0347
-0.904807
-0.576604
-0.388031
-0.211989
-0.141493
-0.495696
-0.944077
-1.61314
-1.99065
-1.42629
-0.89427
-0.544609
-0.33663
-0.335407
-0.371835
-0.542698
-0.582247
-0.723277
-0.793966
-0.778519
-0.58653
-0.500603
-0.206401
-0.0760442
-0.0957465
-0.289069
-0.778943
-1.09374
-1.14901
-0.812118
-0.527036
-0.351839
-0.203266
-0.145835
-0.248772
-0.324809
-0.326795
-0.395128
-0.482279
-0.516633
-0.418135
-0.228658
-0.141955
-0.0560012
-0.0698636
-0.182781
-0.381433
-0.671606
-0.377083
-0.221946
-0.152768
-0.106619
-0.0504136
-0.0923587
-0.129818
-0.071522
-0.185144
-0.100625
-0.169167
-0.172654
-0.135179
-0.138839
0.0216809
0.0194324
-4.73011e-05
-0.00532
-0.149769
-0.155252
-7.04325
-5.24818
-3.63266
-2.50476
-2.10411
-2.06869
-2.27226
-2.83314
-3.27977
-3.73807
-3.93269
-3.74603
-3.34897
-2.69159
-1.98441
-1.52058
-1.56922
-2.10754
-3.32163
-4.82055
-5.90246
-4.42965
-3.08239
-2.14144
-1.69638
-1.65281
-1.85947
-2.18954
-2.69249
-3.08344
-3.22797
-3.07937
-2.68333
-2.09854
-1.62546
-1.24946
-1.27393
-1.67075
-2.69593
-3.93424
-4.8987
-3.6675
-2.54592
-1.77845
-1.40027
-1.24198
-1.53931
-1.78016
-2.22561
-2.41845
-2.67356
-2.52215
-2.22877
-1.7586
-1.25344
-1.02699
-0.920786
-1.37001
-2.23043
-3.26268
-3.93454
-2.96546
-2.02307
-1.39285
-1.10065
-1.06715
-1.23688
-1.48439
-1.69801
-1.96858
-2.12015
-1.9685
-1.75971
-1.3771
-0.983735
-0.71763
-0.711895
-1.04345
-1.74607
-2.54302
-3.04527
-2.30905
-1.51625
-0.996913
-0.877359
-0.794205
-0.849028
-1.18685
-1.22212
-1.48499
-1.57879
-1.56597
-1.30852
-0.971422
-0.74513
-0.515221
-0.533464
-0.779693
-1.3484
-1.95737
-2.18273
-1.55177
-1.06434
-0.719544
-0.525191
-0.50962
-0.706644
-0.71968
-0.869114
-1.10178
-1.11811
-1.09441
-0.933044
-0.692293
-0.475729
-0.356975
-0.311104
-0.512992
-0.957705
-1.358
-1.22866
-0.964668
-0.637444
-0.40122
-0.406997
-0.296269
-0.384302
-0.350019
-0.586679
-0.720958
-0.652698
-0.668332
-0.513414
-0.404114
-0.253517
-0.201206
-0.213813
-0.331551
-0.579518
-0.806322
-0.437015
-0.290317
-0.23194
-0.127993
-0.132718
-0.0754674
-0.096406
-0.144582
-0.223803
-0.240591
-0.172237
-0.309479
-0.179936
-0.108191
-0.0655278
-0.123657
-0.0730448
-0.0737722
-0.154279
-0.247293
-7.46323
-5.7484
-4.19008
-3.10013
-2.66891
-2.62052
-2.93322
-3.46916
-4.00116
-4.45834
-4.68961
-4.60063
-4.20196
-3.44276
-2.85634
-2.40093
-2.34127
-2.82324
-4.02072
-5.31599
-6.22341
-4.81416
-3.51092
-2.57875
-2.14803
-2.16769
-2.43399
-2.84504
-3.33504
-3.72984
-4.01618
-3.80278
-3.43411
-2.81924
-2.29142
-1.90414
-1.88139
-2.39928
-3.2246
-4.4655
-5.17453
-4.04449
-2.88747
-2.10725
-1.8036
-1.76645
-1.98723
-2.21546
-2.64487
-3.04688
-3.14396
-3.08088
-2.822
-2.3128
-1.88428
-1.50057
-1.46499
-1.86733
-2.65599
-3.6703
-4.16023
-3.2151
-2.2723
-1.695
-1.39497
-1.35159
-1.45818
-1.85107
-2.06343
-2.48686
-2.53225
-2.44529
-2.27281
-1.82073
-1.4744
-1.2009
-1.16571
-1.50146
-2.0783
-2.88759
-3.19367
-2.46708
-1.70859
-1.27721
-1.11412
-1.06436
-1.18146
-1.40817
-1.59985
-1.86141
-1.92368
-1.90429
-1.68318
-1.39024
-1.14214
-0.903624
-0.912874
-1.12805
-1.59903
-2.18165
-2.31712
-1.72289
-1.22686
-0.823098
-0.750268
-0.724995
-0.819782
-0.992396
-1.11702
-1.37585
-1.3792
-1.24912
-1.13011
-0.949861
-0.72749
-0.574553
-0.598854
-0.795586
-1.13104
-1.54099
-1.31902
-1.04724
-0.772783
-0.582837
-0.480035
-0.491493
-0.465513
-0.610335
-0.624696
-0.734571
-0.827891
-0.774115
-0.62608
-0.540774
-0.423874
-0.323533
-0.431065
-0.454651
-0.684179
-0.859451
-0.538575
-0.340647
-0.251355
-0.194502
-0.142771
-0.189207
-0.161286
-0.155354
-0.20763
-0.305297
-0.286104
-0.222713
-0.27334
-0.145466
-0.210914
-0.0460207
-0.122715
-0.188645
-0.148451
-0.326113
-7.70572
-6.0729
-4.5853
-3.57655
-3.14361
-3.11896
-3.3913
-3.97629
-4.57781
-5.12882
-5.37045
-5.33272
-4.81819
-4.09764
-3.4522
-3.03687
-2.9651
-3.46355
-4.47737
-5.85189
-6.51509
-5.16667
-3.86094
-2.99506
-2.63205
-2.57181
-2.88603
-3.31357
-3.89274
-4.25235
-4.4352
-4.39544
-3.98833
-3.41367
-2.86102
-2.48056
-2.45316
-2.82919
-3.7153
-4.89086
-5.35787
-4.2499
-3.19347
-2.43883
-2.11383
-2.08636
-2.28834
-2.70557
-3.06221
-3.47958
-3.61762
-3.59673
-3.29106
-2.71709
-2.30629
-2.04548
-1.95001
-2.34171
-3.15229
-4.04545
-4.37052
-3.47749
-2.54899
-1.95377
-1.64287
-1.70692
-1.77149
-2.09433
-2.51491
-2.83677
-2.88886
-2.87607
-2.60793
-2.27197
-1.82306
-1.63571
-1.63277
-1.83349
-2.42547
-3.16899
-3.24546
-2.62013
-1.88718
-1.46789
-1.3315
-1.22758
-1.38208
-1.65548
-1.85671
-2.12768
-2.22269
-2.15721
-2.00218
-1.6662
-1.35707
-1.22164
-1.15337
-1.40898
-1.81948
-2.44922
-2.31118
-1.78951
-1.37807
-1.04189
-0.858037
-0.927395
-0.925478
-1.20274
-1.26358
-1.45036
-1.6446
-1.56269
-1.36378
-1.13931
-0.853844
-0.865389
-0.880545
-0.938797
-1.31201
-1.75472
-1.45605
-1.22212
-0.888742
-0.637936
-0.512295
-0.43143
-0.603106
-0.644735
-0.797881
-0.860559
-0.940757
-0.930148
-0.854297
-0.68772
-0.598561
-0.447717
-0.435676
-0.59254
-0.756697
-1.04319
-0.453581
-0.341902
-0.298419
-0.165563
-0.176519
-0.161351
-0.165529
-0.260198
-0.188033
-0.209606
-0.284604
-0.331897
-0.280969
-0.164818
-0.229709
-0.203693
-0.154588
-0.176987
-0.306592
-0.31517
-7.92789
-6.22735
-4.87932
-3.92214
-3.49814
-3.47884
-3.84521
-4.30729
-5.01514
-5.5101
-5.72058
-5.68337
-5.20844
-4.57697
-3.92085
-3.46939
-3.50428
-3.96044
-4.88677
-6.24925
-6.66327
-5.29104
-4.13269
-3.33658
-2.86264
-2.86516
-3.12851
-3.60653
-4.10639
-4.57606
-4.8092
-4.77489
-4.26214
-3.86489
-3.17751
-2.92437
-2.88209
-3.23097
-4.15144
-5.15369
-5.51905
-4.39919
-3.49102
-2.71959
-2.34605
-2.32047
-2.56262
-2.93253
-3.3583
-3.75646
-4.04136
-3.94894
-3.56603
-3.10533
-2.67055
-2.31817
-2.40433
-2.67907
-3.43909
-4.21254
-4.44726
-3.50927
-2.68143
-2.2723
-1.9266
-1.86518
-1.97556
-2.34259
-2.69281
-2.96517
-3.20582
-3.07104
-2.85543
-2.50589
-2.02352
-1.82531
-1.76987
-2.16278
-2.70845
-3.32785
-3.40043
-2.82816
-2.11253
-1.71613
-1.48111
-1.45086
-1.51708
-1.75242
-2.05979
-2.29321
-2.39038
-2.33236
-2.21132
-1.79487
-1.56902
-1.42818
-1.45226
-1.62075
-2.09544
-2.57698
-2.44305
-1.92277
-1.46192
-1.20321
-0.991243
-0.986321
-1.06871
-1.26518
-1.42831
-1.622
-1.74648
-1.66
-1.49225
-1.31114
-1.16566
-0.92687
-0.972419
-1.1711
-1.52542
-1.8095
-1.47594
-1.19075
-0.943858
-0.636842
-0.612014
-0.607232
-0.570114
-0.742301
-0.881751
-0.955756
-1.03704
-0.908216
-0.955072
-0.791204
-0.758997
-0.566146
-0.56412
-0.70825
-0.807897
-1.08641
-0.438073
-0.360951
-0.266125
-0.311722
-0.163406
-0.144058
-0.186437
-0.159288
-0.273232
-0.325804
-0.339914
-0.351368
-0.39393
-0.246742
-0.172226
-0.241923
-0.162745
-0.209949
-0.25361
-0.35
-7.9338
-6.41012
-5.02341
-4.18792
-3.68436
-3.62564
-3.90855
-4.45523
-5.07042
-5.6319
-5.89656
-5.82202
-5.38734
-4.74764
-4.22902
-3.80263
-3.77689
-4.26736
-5.26824
-6.43282
-6.72161
-5.58262
-4.21223
-3.45165
-3.10011
-2.99039
-3.33884
-3.73351
-4.23868
-4.69515
-4.92676
-4.89216
-4.45379
-3.97566
-3.48006
-3.12047
-3.16745
-3.57785
-4.40274
-5.36792
-5.59
-4.59295
-3.49671
-2.88254
-2.49515
-2.49595
-2.65617
-2.97715
-3.41024
-3.81675
-4.08106
-4.00478
-3.65428
-3.31407
-2.8466
-2.59243
-2.58142
-2.926
-3.59147
-4.44698
-4.50785
-3.70981
-2.82058
-2.26651
-1.97847
-2.05417
-2.11908
-2.39537
-2.80943
-3.11172
-3.21727
-3.22672
-2.97422
-2.61971
-2.3046
-1.9582
-2.01838
-2.4007
-2.88811
-3.58535
-3.43227
-2.79254
-2.18689
-1.77879
-1.58416
-1.48053
-1.61422
-1.88306
-2.06795
-2.32386
-2.54215
-2.33393
-2.25634
-1.97288
-1.76705
-1.61443
-1.55685
-1.87413
-2.22879
-2.72119
-2.41706
-2.00767
-1.47869
-1.17409
-1.1251
-1.0829
-1.1864
-1.28565
-1.57532
-1.64687
-1.70144
-1.75009
-1.61714
-1.39599
-1.27144
-1.10852
-1.07362
-1.22794
-1.54768
-1.93228
-1.4964
-1.18495
-0.924016
-0.7442
-0.5807
-0.681903
-0.723834
-0.808911
-0.836269
-1.01519
-1.06098
-0.973763
-0.979176
-0.845075
-0.677956
-0.628393
-0.643589
-0.728475
-0.85941
-1.14604
-0.539157
-0.403663
-0.334939
-0.21947
-0.207859
-0.258538
-0.278923
-0.276332
-0.291115
-0.373615
-0.323275
-0.30742
-0.348714
-0.267146
-0.259447
-0.255736
-0.204723
-0.34851
-0.3258
-0.438445
-7.83219
-6.49103
-5.15477
-4.16521
-3.7306
-3.68214
-3.88852
-4.39902
-5.02439
-5.49745
-5.78506
-5.63425
-5.24944
-4.76192
-4.19726
-3.94787
-3.88212
-4.37769
-5.30444
-6.53703
-6.71891
-5.40986
-4.20975
-3.54468
-3.0913
-3.04816
-3.27418
-3.59683
-4.15059
-4.55535
-4.77376
-4.67776
-4.34097
-3.90814
-3.54984
-3.21795
-3.26467
-3.69819
-4.49178
-5.52181
-5.48329
-4.4644
-3.58059
-2.88212
-2.50171
-2.54894
-2.59156
-2.91346
-3.3718
-3.70299
-3.89123
-3.89647
-3.67477
-3.19878
-2.82886
-2.62473
-2.70175
-3.08144
-3.66991
-4.45571
-4.44232
-3.61703
-2.81931
-2.32733
-2.00063
-1.97301
-2.09163
-2.3587
-2.66337
-2.98523
-3.15929
-3.07866
-2.88578
-2.62067
-2.22381
-2.06068
-2.13574
-2.42996
-2.97441
-3.55201
-3.3407
-2.78774
-2.1843
-1.80141
-1.60811
-1.48872
-1.5871
-1.86669
-2.03097
-2.24845
-2.3947
-2.3738
-2.20668
-1.9422
-1.69547
-1.58684
-1.53557
-1.81697
-2.23842
-2.70765
-2.3705
-2.09698
-1.57576
-1.22632
-1.07839
-1.04142
-1.18695
-1.25714
-1.4582
-1.51611
-1.70251
-1.64421
-1.50844
-1.33441
-1.25466
-1.1012
-1.1082
-1.33978
-1.5934
-1.95598
-1.46508
-1.11035
-0.922001
-0.703199
-0.557881
-0.642422
-0.703184
-0.697924
-0.81874
-0.989723
-1.07236
-1.02292
-0.946234
-0.839686
-0.700534
-0.638401
-0.635765
-0.763334
-0.94668
-1.12294
-0.441751
-0.28704
-0.2738
-0.241214
-0.212045
-0.189965
-0.247799
-0.143036
-0.269188
-0.320341
-0.360916
-0.249566
-0.340303
-0.24539
-0.179253
-0.243882
-0.206515
-0.263217
-0.303465
-0.401829
-7.64828
-6.20788
-4.95868
-4.0272
-3.61115
-3.4107
-3.66501
-4.11616
-4.57793
-5.05455
-5.28035
-5.26448
-4.97924
-4.45852
-3.97419
-3.77905
-3.84624
-4.36297
-5.34369
-6.3829
-6.48556
-5.25106
-4.14709
-3.40375
-2.97274
-2.90413
-2.9583
-3.36762
-3.84785
-4.15626
-4.40883
-4.38099
-4.11081
-3.68924
-3.28465
-3.1395
-3.26618
-3.65264
-4.44698
-5.26542
-5.36947
-4.39911
-3.41117
-2.68399
-2.4037
-2.3447
-2.4461
-2.82022
-3.14934
-3.43967
-3.61439
-3.58294
-3.44689
-3.04887
-2.71923
-2.55563
-2.71109
-3.08526
-3.64019
-4.31253
-4.26917
-3.46936
-2.7956
-2.24833
-1.91532
-1.80394
-2.0368
-2.2326
-2.5291
-2.80544
-2.94602
-2.84769
-2.70692
-2.3565
-2.20315
-1.99924
-2.0828
-2.4556
-2.98017
-3.5194
-3.28867
-2.74721
-2.15941
-1.67278
-1.44912
-1.43764
-1.48444
-1.71779
-1.85356
-2.06177
-2.2338
-2.15713
-2.0241
-1.83093
-1.69301
-1.53595
-1.56413
-1.75023
-2.20978
-2.67291
-2.29594
-1.89351
-1.46424
-1.16298
-1.04118
-0.984029
-1.06908
-1.16063
-1.32225
-1.47117
-1.52313
-1.55642
-1.51179
-1.18392
-1.20119
-1.13483
-1.11436
-1.30906
-1.54678
-1.81055
-1.32038
-1.14433
-0.874467
-0.669991
-0.611134
-0.550818
-0.65309
-0.643065
-0.870835
-0.854304
-0.897675
-0.887137
-0.889801
-0.70909
-0.724354
-0.650362
-0.563151
-0.772778
-0.799997
-1.08652
-0.475821
-0.42706
-0.330799
-0.276639
-0.190829
-0.176645
-0.164887
-0.232729
-0.255348
-0.303542
-0.274431
-0.327439
-0.294704
-0.212895
-0.243258
-0.21534
-0.199651
-0.295323
-0.354511
-0.320257
-7.22991
-5.85487
-4.61097
-3.7243
-3.21237
-3.14068
-3.31258
-3.58798
-4.05512
-4.43253
-4.6162
-4.59606
-4.29417
-3.98401
-3.65667
-3.38835
-3.59648
-4.12155
-5.03089
-6.11158
-6.04424
-4.93035
-3.83365
-3.08225
-2.67479
-2.57051
-2.57328
-2.92016
-3.35969
-3.6633
-3.83716
-3.84433
-3.55835
-3.32905
-2.993
-2.77402
-2.976
-3.42889
-4.1955
-5.07059
-5.0513
-4.1318
-3.20907
-2.51923
-2.14918
-2.16053
-2.17052
-2.37038
-2.68568
-3.00846
-3.0966
-3.11683
-2.9699
-2.7254
-2.43318
-2.30178
-2.42776
-2.81175
-3.42276
-4.18908
-4.02472
-3.22335
-2.56377
-2.08567
-1.66177
-1.64333
-1.72957
-1.86893
-2.17874
-2.31246
-2.5048
-2.46413
-2.38995
-2.08529
-1.77392
-1.83145
-1.91142
-2.27396
-2.7973
-3.3328
-3.07864
-2.48655
-1.96785
-1.52907
-1.3469
-1.27056
-1.38417
-1.4085
-1.69049
-1.841
-1.87293
-1.87991
-1.77676
-1.62988
-1.39428
-1.41423
-1.47242
-1.77137
-2.04311
-2.54963
-2.11185
-1.79275
-1.33739
-1.02236
-0.858214
-0.846358
-0.971709
-1.03339
-1.17544
-1.27072
-1.30811
-1.34177
-1.26266
-1.07471
-0.979024
-0.977527
-1.02265
-1.18746
-1.49862
-1.79573
-1.29984
-1.08566
-0.845049
-0.587541
-0.553356
-0.533372
-0.544237
-0.628409
-0.712055
-0.799791
-0.819685
-0.774387
-0.753525
-0.714727
-0.542525
-0.55802
-0.706625
-0.714053
-0.857627
-1.04245
-0.429689
-0.369487
-0.367752
-0.178726
-0.157171
-0.22469
-0.257881
-0.234375
-0.186033
-0.219842
-0.268194
-0.240751
-0.259917
-0.199855
-0.158796
-0.189713
-0.200382
-0.272807
-0.248566
-0.392013
-6.6312
-5.28735
-4.0011
-3.23674
-2.70624
-2.46015
-2.59746
-2.95909
-3.24978
-3.59597
-3.69144
-3.74946
-3.56528
-3.29134
-3.02494
-2.91308
-3.04172
-3.68491
-4.57746
-5.6309
-5.58302
-4.50152
-3.33914
-2.63989
-2.18032
-1.98766
-2.07761
-2.3339
-2.61826
-2.94632
-3.14111
-3.10483
-2.88652
-2.64932
-2.49952
-2.39706
-2.54185
-3.03826
-3.71863
-4.67254
-4.55919
-3.6484
-2.8048
-2.14933
-1.71317
-1.61525
-1.6601
-1.93472
-2.12139
-2.38777
-2.51812
-2.51343
-2.36774
-2.08186
-1.93294
-1.89367
-1.89876
-2.49725
-3.07737
-3.81312
-3.71299
-2.94295
-2.21917
-1.73704
-1.34658
-1.23101
-1.34868
-1.48402
-1.63235
-1.77993
-1.95602
-1.98526
-1.85799
-1.65494
-1.4846
-1.51665
-1.57338
-1.88977
-2.54692
-3.0778
-2.76305
-2.26912
-1.59679
-1.24659
-1.04539
-0.998328
-1.02515
-1.08846
-1.21924
-1.46515
-1.51974
-1.59016
-1.39098
-1.22944
-1.17775
-1.16368
-1.20212
-1.44331
-1.80424
-2.33995
-2.02658
-1.57086
-1.17076
-0.952564
-0.713971
-0.679467
-0.711955
-0.799744
-0.872275
-0.995899
-1.0345
-0.984007
-0.987161
-0.892123
-0.753014
-0.740596
-0.836746
-0.987756
-1.32068
-1.6591
-1.17081
-0.924563
-0.674723
-0.43539
-0.420614
-0.416258
-0.419357
-0.500849
-0.580906
-0.541357
-0.555293
-0.618261
-0.659956
-0.552188
-0.419935
-0.46069
-0.506755
-0.600096
-0.796752
-0.957061
-0.428859
-0.281267
-0.226219
-0.158079
-0.132785
-0.162691
-0.142552
-0.0563113
-0.230352
-0.137894
-0.228716
-0.172612
-0.168685
-0.16289
-0.115844
-0.108283
-0.159534
-0.210536
-0.236233
-0.325602
-5.87062
-4.52544
-3.36659
-2.45375
-1.89887
-1.74083
-1.7051
-1.96701
-2.22624
-2.53893
-2.66252
-2.64046
-2.57079
-2.34582
-2.15042
-2.08858
-2.38216
-2.94417
-3.83918
-4.90373
-4.88766
-3.86537
-2.76744
-1.99628
-1.5375
-1.35024
-1.40358
-1.55127
-1.74569
-2.01921
-2.14311
-2.12309
-2.04217
-1.73164
-1.71316
-1.67687
-1.89592
-2.40039
-3.20691
-4.07357
-4.03495
-3.12066
-2.22894
-1.57586
-1.23421
-1.08802
-1.14117
-1.2115
-1.31368
-1.60639
-1.65027
-1.76845
-1.58422
-1.51068
-1.35698
-1.36419
-1.53574
-1.90107
-2.6338
-3.30599
-3.22949
-2.512
-1.76675
-1.13608
-0.869771
-0.767866
-0.824671
-0.932248
-1.14282
-1.24669
-1.29411
-1.28743
-1.31268
-1.13384
-1.0168
-1.05938
-1.16145
-1.56243
-2.00937
-2.6489
-2.43099
-1.893
-1.3644
-0.920865
-0.676113
-0.563275
-0.658337
-0.647298
-0.836648
-0.925153
-1.04242
-0.992463
-0.844846
-0.882903
-0.694002
-0.75532
-0.938491
-1.15064
-1.58763
-2.01239
-1.65511
-1.32228
-0.904186
-0.649034
-0.502326
-0.448631
-0.400585
-0.511069
-0.577243
-0.604188
-0.709886
-0.681466
-0.587077
-0.650253
-0.443624
-0.546718
-0.618472
-0.758032
-1.04346
-1.44234
-1.01653
-0.797844
-0.507295
-0.366995
-0.282124
-0.221497
-0.242401
-0.282913
-0.256036
-0.377088
-0.370166
-0.419855
-0.397035
-0.347385
-0.302416
-0.320765
-0.366327
-0.513396
-0.640672
-0.827102
-0.348997
-0.239858
-0.123912
-0.124785
-0.0845137
-0.13698
-0.077716
-0.113238
-0.0781033
-0.1101
-0.145032
-0.157929
-0.109442
-0.146951
-0.113652
-0.121568
-0.138453
-0.221722
-0.224824
-0.257257
-4.96595
-3.65953
-2.462
-1.58179
-0.974907
-0.757318
-0.72364
-0.859745
-1.11824
-1.30555
-1.38836
-1.5158
-1.37914
-1.1767
-1.15788
-1.21545
-1.51451
-2.12215
-3.00807
-4.07754
-4.11137
-3.02522
-2.08617
-1.16989
-0.769426
-0.464866
-0.580099
-0.63361
-0.828559
-0.983782
-1.11587
-1.07948
-1.04417
-0.849173
-0.805937
-0.874063
-1.08562
-1.70498
-2.50743
-3.41425
-3.38069
-2.46796
-1.60042
-0.995237
-0.549301
-0.343627
-0.314723
-0.468561
-0.638635
-0.744943
-0.80252
-0.761599
-0.764266
-0.696034
-0.654528
-0.627255
-0.886005
-1.31282
-1.98171
-2.66478
-2.66385
-1.99383
-1.23076
-0.778545
-0.361576
-0.227334
-0.176057
-0.271265
-0.419475
-0.546828
-0.645334
-0.573642
-0.547142
-0.499544
-0.428236
-0.485799
-0.658665
-1.00351
-1.58035
-2.1803
-1.98156
-1.50168
-0.972208
-0.513629
-0.307158
-0.195862
-0.0907296
-0.169751
-0.349615
-0.348741
-0.433004
-0.425834
-0.422543
-0.295908
-0.348691
-0.236965
-0.441014
-0.741742
-1.03985
-1.61217
-1.38088
-1.1112
-0.626889
-0.324345
-0.144515
-0.132063
-0.114534
-0.13374
-0.117291
-0.31583
-0.2868
-0.233128
-0.294728
-0.290401
-0.166226
-0.226873
-0.362887
-0.532077
-0.827432
-1.13378
-0.825245
-0.620989
-0.392266
-0.245503
-0.105434
-0.0360757
-0.0888231
-0.0012112
-0.120225
-0.101108
-0.140107
-0.0884457
-0.164508
-0.137375
-0.0918917
-0.128991
-0.164619
-0.28378
-0.388078
-0.607525
-0.243687
-0.157354
-0.13239
-0.103756
-0.0656305
0.00568482
-0.0133575
-0.0416515
-0.0178992
-0.111919
-0.0510444
-0.00931208
0.0207215
-0.0772672
-0.0156192
-0.0128713
-0.0864255
-0.106124
-0.213077
-0.264978
-3.89258
-2.66653
-1.431
-0.637533
0.0192176
0.224027
0.339518
0.310546
0.162302
0.0543452
-0.0767275
-0.0972099
-0.093727
-0.0312498
-0.00176555
-0.174747
-0.551619
-1.09375
-2.06814
-3.12862
-3.19235
-2.14672
-1.13976
-0.359228
0.0742297
0.435184
0.467213
0.384238
0.282046
0.132281
0.0194766
0.0465376
0.0523521
0.125313
0.153061
0.0253618
-0.287407
-0.845449
-1.65209
-2.52051
-2.62604
-1.73247
-0.841481
-0.215906
0.114972
0.362894
0.423515
0.422322
0.340054
0.198069
0.133212
0.141267
0.127236
0.140644
0.227218
0.139024
-0.101063
-0.591562
-1.31008
-1.94821
-2.11793
-1.41102
-0.644214
-0.148954
0.226324
0.432306
0.455842
0.37498
0.312282
0.212171
0.126007
0.180903
0.231069
0.219304
0.200275
0.190169
-0.0380845
-0.484694
-0.934574
-1.58822
-1.56092
-1.02368
-0.550969
-0.103172
0.177975
0.33164
0.356864
0.31098
0.201677
0.155321
0.198202
0.135862
0.180954
0.259128
0.270094
0.182751
0.0601803
-0.353402
-0.699876
-1.16095
-1.05542
-0.750538
-0.304535
-0.0202801
0.159565
0.295104
0.260186
0.322513
0.183664
0.151413
0.072587
0.188089
0.138088
0.137272
0.157487
0.0241163
0.0318931
-0.183293
-0.474477
-0.763622
-0.652791
-0.445633
-0.154977
-0.0182181
0.102552
0.163437
0.106544
0.162651
0.0960048
0.12615
0.0536522
0.103569
0.106585
0.0715162
0.152217
0.12531
0.01779
-0.164096
-0.230187
-0.469837
-0.236509
-0.114645
-0.0933339
-0.0278324
0.119603
0.0329626
0.0654323
0.0521943
-0.0179216
0.0177454
-0.00490699
0.00568674
-0.00760012
0.0738741
0.108969
0.0356989
0.000879542
-0.0368226
-0.0417457
-0.146465
-2.8989
-1.62283
-0.413256
0.439366
1.03657
1.37424
1.50196
1.53519
1.4619
1.29714
1.16064
1.21667
1.23596
1.27127
1.10594
0.992241
0.513002
-0.071155
-0.981994
-2.1125
-2.28736
-1.23263
-0.267354
0.506014
1.04612
1.33115
1.46864
1.44534
1.38005
1.26439
1.20623
1.10262
1.19404
1.20727
1.14187
0.925016
0.571732
0.0598627
-0.823785
-1.66183
-1.87341
-1.05969
-0.140489
0.481333
1.04142
1.3051
1.2966
1.32277
1.22562
1.0885
1.06402
1.00125
1.10662
1.08153
1.09994
0.868901
0.595443
0.10741
-0.584546
-1.32147
-1.43288
-0.715412
-0.0923354
0.431555
0.850304
1.01445
1.15104
1.09411
1.02804
0.976452
0.939662
0.944952
0.932277
0.97721
0.861518
0.824348
0.527447
0.133387
-0.377151
-0.931706
-1.06932
-0.564661
-0.0503735
0.404035
0.62174
0.850574
0.96645
0.92115
0.852371
0.799409
0.741804
0.717822
0.752187
0.658941
0.768764
0.66829
0.424264
0.222748
-0.324679
-0.682832
-0.703814
-0.400078
0.0096924
0.308523
0.477797
0.569313
0.695375
0.671327
0.671848
0.550759
0.517115
0.566766
0.602388
0.534218
0.482593
0.511786
0.377227
0.134387
-0.196779
-0.499372
-0.46974
-0.338698
-0.018093
0.243893
0.286087
0.369372
0.343309
0.403836
0.380559
0.430865
0.301105
0.330432
0.335349
0.417737
0.389195
0.368304
0.171631
0.119458
-0.142659
-0.274858
-0.162196
-0.0523749
0.0225172
0.0399317
0.0717752
0.115278
0.0351979
0.159858
0.117405
0.109691
0.100272
0.160809
0.097962
0.13419
0.141853
0.0803713
0.123361
-0.030091
-0.074877
-0.0260741
-2.08731
-0.763272
0.475839
1.275
1.98911
2.36831
2.52266
2.56301
2.4497
2.43017
2.34873
2.37177
2.23852
2.23453
2.14593
1.85878
1.58892
0.804369
-0.223582
-1.23299
-1.60798
-0.668167
0.436278
1.18666
1.81278
2.04664
2.2311
2.30361
2.30523
2.12353
1.98501
2.0047
2.08304
1.9609
1.98922
1.71698
1.41091
0.79958
-0.112115
-0.949341
-1.2521
-0.478424
0.461378
1.00902
1.57544
1.72913
1.95443
1.8982
1.92995
1.84185
1.84159
1.74661
1.73423
1.65591
1.6765
1.5759
1.16813
0.647495
0.107703
-0.711311
-1.06096
-0.382494
0.337362
0.988954
1.25244
1.53134
1.59839
1.65679
1.63398
1.53866
1.3916
1.47667
1.52363
1.47198
1.38864
1.2181
0.917449
0.636624
0.0759297
-0.500011
-0.668907
-0.175051
0.349483
0.74053
1.0153
1.15362
1.28242
1.24926
1.17646
1.17793
1.1221
1.16384
1.11595
1.20074
1.06412
0.980623
0.779931
0.493391
-0.0880663
-0.372707
-0.491918
-0.12871
0.22187
0.55692
0.762934
0.886492
0.908709
1.02273
0.905457
0.893225
0.780066
0.829271
0.885141
0.881352