/*--------------------------------*- C++ -*----------------------------------*\
| =========                 |                                                 |
| \\      /  F ield         | OpenFOAM: The Open Source CFD Toolbox           |
|  \\    /   O peration     | Version:  2212                                  |
|   \\  /    A nd           | Website:  www.openfoam.com                      |
|    \\/     M anipulation  |                                                 |
\*---------------------------------------------------------------------------*/
FoamFile
{
    version     2.0;
    format      ascii;
    arch        "LSB;label=32;scalar=64";
    class       volScalarField;
    location    "0";
    object      T;
}
// * * * * * * * * * * * * * * * * * * * * * * * * * * * * * * * * * * * * * //

dimensions      [0 0 0 1 0 0 0];

internalField   nonuniform List<scalar> 
3200
(
341.986
342.702
343.801
344.744
345.481
346.075
346.459
346.88
347.367
347.355
347.424
347.357
346.727
346.094
345.76
345.373
344.37
343.383
342.246
341.481
336.451
337.055
337.982
338.843
339.55
339.951
340.321
340.735
341.159
341.165
341.19
341.101
340.567
340.009
339.75
339.447
338.545
337.682
336.738
336.034
330.93
331.394
332.161
332.932
333.539
333.822
334.187
334.567
334.928
334.901
334.884
334.802
334.354
333.905
333.677
333.484
332.648
331.912
331.138
330.513
325.323
325.72
326.335
326.964
327.477
327.668
328.038
328.398
328.654
328.612
328.583
328.517
328.153
327.765
327.572
327.444
326.748
326.118
325.465
324.985
319.713
320.005
320.455
320.991
321.432
321.547
321.863
322.167
322.355
322.307
322.263
322.173
321.945
321.633
321.454
321.332
320.86
320.321
319.836
319.465
314.109
314.272
314.636
314.994
315.319
315.377
315.669
315.904
316.022
315.935
315.951
315.813
315.713
315.438
315.37
315.219
314.92
314.535
314.203
313.91
308.492
308.565
308.795
308.988
309.177
309.219
309.434
309.573
309.643
309.564
309.594
309.516
309.446
309.292
309.23
309.16
308.98
308.736
308.556
308.372
302.842
302.868
302.937
303.015
303.068
303.08
303.162
303.211
303.255
303.195
303.224
303.199
303.178
303.125
303.104
303.065
303.019
302.934
302.871
302.792
342.912
343.593
344.618
345.432
346.292
347.014
347.505
347.917
348.396
348.39
348.388
348.193
347.806
347.448
346.83
346.145
345.326
344.46
343.012
342.46
337.199
337.771
338.707
339.362
340.121
340.743
341.185
341.611
342.005
341.956
342.007
341.823
341.477
341.136
340.645
340.01
339.352
338.567
337.316
336.921
331.507
331.952
332.759
333.324
333.989
334.46
334.89
335.294
335.563
335.518
335.547
335.431
335.099
334.803
334.417
333.871
333.314
332.661
331.616
331.345
325.823
326.162
326.819
327.26
327.848
328.205
328.58
328.861
329.118
329.096
329.091
328.999
328.736
328.442
328.181
327.721
327.263
326.752
325.856
325.719
320.12
320.351
320.848
321.18
321.697
321.97
322.275
322.484
322.677
322.648
322.672
322.58
322.368
322.077
321.909
321.609
321.202
320.823
320.096
320.051
314.407
314.555
314.942
315.118
315.511
315.697
315.888
316.116
316.261
316.175
316.221
316.152
316.037
315.737
315.661
315.499
315.148
314.881
314.383
314.327
308.662
308.779
308.94
309.094
309.313
309.441
309.527
309.713
309.785
309.712
309.729
309.686
309.664
309.442
309.419
309.329
309.074
308.97
308.639
308.644
302.916
302.934
302.98
303.068
303.124
303.179
303.187
303.268
303.286
303.261
303.267
303.249
303.238
303.168
303.163
303.123
303.036
303.021
302.894
302.909
343.927
344.683
345.664
346.65
347.561
348.199
348.839
349.023
349.234
349.712
349.546
349.415
348.998
348.738
347.947
347.166
346.471
345.31
344.2
343.559
338.102
338.717
339.531
340.447
341.189
341.82
342.36
342.502
342.708
343.118
342.971
342.854
342.503
342.266
341.597
340.924
340.276
339.242
338.3
337.87
332.259
332.77
333.428
334.258
334.819
335.445
335.845
335.99
336.207
336.486
336.36
336.288
335.999
335.801
335.246
334.706
334.067
333.217
332.406
332.118
326.379
326.852
327.315
328.042
328.512
329.048
329.338
329.5
329.699
329.843
329.791
329.706
329.496
329.283
328.904
328.446
327.917
327.151
326.506
326.345
320.463
320.868
321.272
321.836
322.179
322.627
322.792
322.972
323.123
323.217
323.207
323.106
322.956
322.768
322.512
322.151
321.749
321.131
320.611
320.518
314.57
314.879
315.188
315.582
315.885
316.195
316.288
316.404
316.521
316.608
316.545
316.546
316.422
316.289
316.145
315.831
315.545
315.104
314.722
314.676
308.761
308.953
309.124
309.364
309.571
309.726
309.788
309.811
309.95
309.967
309.922
309.979
309.878
309.776
309.717
309.516
309.354
309.07
308.834
308.791
302.946
303.014
303.067
303.132
303.207
303.281
303.269
303.284
303.327
303.336
303.33
303.343
303.314
303.264
303.255
303.196
303.131
303.028
302.965
302.943
344.896
345.829
346.985
347.787
348.809
349.566
350.212
350.327
350.622
350.769
350.635
350.632
350.146
349.821
349.168
348.277
347.488
346.626
345.533
344.529
338.92
339.655
340.68
341.419
342.31
342.976
343.558
343.625
343.844
343.974
343.876
343.9
343.481
343.203
342.643
341.842
341.141
340.422
339.448
338.629
332.938
333.522
334.376
335.058
335.825
336.378
336.88
336.93
337.114
337.187
337.11
337.126
336.806
336.539
336.114
335.405
334.822
334.211
333.354
332.758
326.979
327.436
328.149
328.69
329.348
329.738
330.17
330.215
330.407
330.427
330.342
330.389
330.129
329.883
329.571
329.007
328.484
328.004
327.312
326.823
321.024
321.374
321.911
322.304
322.853
323.133
323.459
323.519
323.625
323.664
323.587
323.645
323.445
323.246
323.059
322.577
322.138
321.777
321.279
320.87
315.048
315.271
315.681
315.926
316.324
316.531
316.771
316.778
316.86
316.949
316.873
316.891
316.778
316.587
316.52
316.151
315.859
315.527
315.227
314.95
309.06
309.156
309.417
309.589
309.797
309.952
310.069
310.066
310.121
310.212
310.12
310.14
310.095
309.932
309.954
309.704
309.53
309.335
309.146
309.003
303.044
303.063
303.156
303.213
303.283
303.334
303.395
303.367
303.379
303.434
303.384
303.403
303.384
303.32
303.341
303.259
303.211
303.125
303.071
303.013
346.049
346.983
348.164
349.087
349.938
350.559
351.314
351.506
351.707
351.92
351.881
351.789
351.49
350.964
350.235
349.411
348.51
347.631
346.505
345.468
339.88
340.726
341.753
342.537
343.275
343.791
344.443
344.563
344.809
344.944
344.935
344.907
344.611
344.169
343.567
342.842
342.04
341.306
340.344
339.482
333.712
334.439
335.338
335.99
336.631
337.111
337.592
337.665
337.95
338.025
337.962
338.061
337.783
337.366
336.916
336.294
335.587
334.97
334.171
333.476
327.546
328.166
328.921
329.48
329.973
330.408
330.775
330.783
331.06
331.144
331.057
331.169
330.919
330.584
330.259
329.724
329.137
328.615
327.936
327.407
321.372
321.898
322.503
322.933
323.332
323.675
323.903
323.939
324.145
324.257
324.153
324.25
324.06
323.796
323.581
323.138
322.661
322.277
321.707
321.367
315.278
315.636
316.073
316.376
316.655
316.932
317.028
317.109
317.216
317.34
317.23
317.323
317.159
317.009
316.894
316.558
316.211
315.962
315.511
315.248
309.214
309.416
309.635
309.851
309.983
310.172
310.214
310.271
310.334
310.417
310.342
310.413
310.289
310.196
310.141
309.985
309.74
309.599
309.304
309.147
303.08
303.165
303.234
303.305
303.346
303.404
303.412
303.462
303.484
303.476
303.454
303.485
303.447
303.415
303.404
303.32
303.268
303.234
303.101
303.057
347.098
347.903
348.884
350.259
351.079
351.842
352.446
352.76
352.82
353.076
352.911
352.96
352.693
352.15
351.456
350.521
349.625
348.788
347.41
346.587
340.824
341.5
342.379
343.532
344.227
344.929
345.474
345.759
345.764
345.993
345.827
345.884
345.679
345.233
344.61
343.774
343.031
342.275
341.077
340.443
334.566
335.139
335.872
336.823
337.406
338.041
338.44
338.724
338.724
338.913
338.762
338.741
338.677
338.29
337.757
337.035
336.419
335.762
334.751
334.269
328.315
328.726
329.329
330.135
330.575
331.117
331.444
331.7
331.663
331.817
331.679
331.672
331.688
331.336
330.877
330.341
329.823
329.265
328.432
328.065
322.042
322.34
322.83
323.443
323.748
324.139
324.481
324.671
324.614
324.773
324.61
324.621
324.64
324.415
324.009
323.638
323.184
322.763
322.131
321.841
315.733
315.967
316.323
316.749
316.93
317.242
317.495
317.639
317.599
317.682
317.596
317.589
317.585
317.444
317.129
316.903
316.579
316.293
315.815
315.594
309.459
309.599
309.807
310.04
310.148
310.378
310.513
310.589
310.582
310.615
310.55
310.544
310.58
310.479
310.268
310.132
309.983
309.812
309.523
309.348
303.17
303.208
303.301
303.375
303.41
303.463
303.527
303.547
303.557
303.56
303.534
303.535
303.545
303.514
303.44
303.4
303.362
303.286
303.208
303.144
348.039
349.066
350.176
351.38
352.151
352.874
353.549
353.806
353.936
354.154
354.066
354.074
353.852
353.241
352.467
351.808
350.583
349.793
348.505
347.723
341.609
342.469
343.434
344.508
345.171
345.807
346.411
346.612
346.772
346.9
346.856
346.852
346.689
346.174
345.446
344.872
343.825
343.165
342.015
341.428
335.22
335.898
336.734
337.705
338.216
338.769
339.265
339.408
339.6
339.667
339.646
339.602
339.521
339.078
338.433
337.928
337.12
336.533
335.585
335.118
328.821
329.328
330.038
330.882
331.268
331.758
332.159
332.267
332.37
332.459
332.421
332.391
332.328
331.969
331.418
331.048
330.376
329.926
329.126
328.79
322.408
322.8
323.345
324.034
324.389
324.72
325.005
325.125
325.147
325.255
325.199
325.177
325.108
324.842
324.452
324.125
323.678
323.302
322.608
322.403
316.008
316.306
316.675
317.189
317.434
317.686
317.821
317.934
317.934
318.069
317.983
318.028
317.922
317.738
317.471
317.2
316.935
316.662
316.164
315.999
309.599
309.794
309.985
310.334
310.47
310.608
310.67
310.76
310.728
310.851
310.813
310.828
310.777
310.626
310.504
310.33
310.173
310.005
309.736
309.602
303.198
303.277
303.345
303.459
303.524
303.56
303.562
303.618
303.592
303.641
303.622
303.633
303.601
303.539
303.53
303.467
303.408
303.338
303.26
303.226
348.871
350.037
351.104
352.43
353.178
354.082
354.761
354.953
355.052
355.287
355.227
355.061
354.826
354.391
353.411
352.716
351.652
350.9
349.655
348.511
342.36
343.326
344.285
345.431
346.052
346.845
347.445
347.624
347.721
347.895
347.845
347.702
347.487
347.169
346.266
345.708
344.783
344.106
343.045
342.087
335.83
336.635
337.42
338.45
338.982
339.619
340.157
340.305
340.369
340.481
340.497
340.347
340.173
339.911
339.135
338.703
337.916
337.327
336.463
335.666
329.277
329.982
330.579
331.496
331.921
332.418
332.852
333.025
333.017
333.151
333.134
333.033
332.862
332.645
331.989
331.64
331.045
330.54
329.849
329.209
322.769
323.286
323.797
324.508
324.827
325.219
325.537
325.716
325.7
325.806
325.752
325.712
325.601
325.401
324.873
324.562
324.174
323.752
323.229
322.761
316.251
316.624
316.984
317.549
317.754
317.989
318.238
318.433
318.372
318.42
318.415
318.423
318.3
318.176
317.772
317.544
317.334
316.982
316.563
316.279
309.713
309.983
310.203
310.575
310.664
310.804
310.954
311.1
311.045
311.055
311.05
311.103
311.007
310.931
310.664
310.529
310.413
310.216
309.928
309.774
303.253
303.336
303.417
303.556
303.565
303.628
303.672
303.703
303.697
303.699
303.695
303.713
303.693
303.675
303.568
303.521
303.501
303.423
303.328
303.281
349.666
350.863
352.163
353.19
354.205
354.932
355.555
355.8
356.055
356.09
356.22
356.221
355.713
355.197
354.475
353.731
352.573
351.318
350.33
349.489
343.12
344.093
345.18
346.034
346.936
347.581
348.112
348.349
348.587
348.609
348.748
348.72
348.28
347.805
347.191
346.575
345.592
344.471
343.672
342.959
336.55
337.319
338.197
338.964
339.692
340.252
340.661
340.901
341.101
341.149
341.232
341.222
340.869
340.441
339.9
339.394
338.565
337.626
336.969
336.427
329.929
330.544
331.234
331.886
332.461
332.953
333.251
333.447
333.627
333.654
333.747
333.74
333.454
333.088
332.667
332.249
331.555
330.785
330.255
329.828
323.296
323.751
324.269
324.825
325.26
325.627
325.844
326.015
326.12
326.13
326.251
326.255
326.026
325.782
325.436
325.115
324.575
323.957
323.531
323.206
316.625
316.963
317.326
317.758
318.054
318.335
318.451
318.573
318.657
318.658
318.698
318.751
318.604
318.431
318.167
317.95
317.586
317.078
316.832
316.567
309.99
310.153
310.407
310.679
310.868
311.023
311.076
311.159
311.187
311.226
311.208
311.252
311.15
311.082
310.902
310.778
310.558
310.252
310.13
309.946
303.352
303.395
303.491
303.571
303.652
303.703
303.711
303.759
303.759
303.768
303.751
303.784
303.718
303.713
303.651
303.604
303.532
303.426
303.427
303.346
350.716
351.788
352.847
353.903
355.141
355.645
356.339
356.872
356.948
357.221
357.104
356.901
356.59
355.995
355.495
354.522
353.319
352.129
351.27
350.101
343.977
344.841
345.83
346.685
347.748
348.196
348.798
349.288
349.318
349.592
349.48
349.314
349.035
348.535
348.115
347.255
346.221
345.207
344.417
343.497
337.206
337.905
338.772
339.495
340.428
340.76
341.256
341.706
341.732
342.011
341.899
341.698
341.496
341.065
340.73
339.995
339.111
338.289
337.535
336.873
330.432
330.976
331.699
332.335
333.092
333.338
333.775
334.096
334.152
334.376
334.279
334.068
333.939
333.617
333.343
332.729
332.026
331.4
330.644
330.219
323.665
324.125
324.668
325.184
325.739
325.965
326.287
326.496
326.535
326.728
326.642
326.49
326.395
326.123
325.924
325.448
324.975
324.46
323.859
323.523
316.962
317.287
317.635
318.006
318.416
318.597
318.818
318.902
318.952
319.072
319.018
318.898
318.873
318.662
318.49
318.155
317.88
317.522
317.06
316.782
310.191
310.353
310.566
310.821
311.059
311.202
311.347
311.373
311.376
311.417
311.392
311.335
311.355
311.192
311.076
310.913
310.762
310.55
310.268
310.077
303.431
303.456
303.54
303.627
303.687
303.748
303.803
303.816
303.821
303.831
303.821
303.781
303.818
303.742
303.71
303.667
303.618
303.529
303.468
303.388
351.452
352.283
353.777
354.871
355.921
356.443
356.987
357.447
357.72
358.001
358.047
357.678
357.314
356.794
356.211
355.398
354.243
353.107
351.925
350.521
344.613
345.308
346.563
347.547
348.486
348.903
349.351
349.784
349.999
350.243
350.271
349.951
349.655
349.198
348.737
348.02
346.992
345.987
345.038
343.828
337.769
338.359
339.346
340.201
340.985
341.379
341.751
342.135
342.312
342.49
342.517
342.225
342.031
341.639
341.255
340.672
339.768
338.884
338.167
337.146
330.969
331.42
332.175
332.846
333.492
333.868
334.127
334.48
334.653
334.755
334.763
334.52
334.401
334.043
333.769
333.321
332.52
331.824
331.219
330.452
324.125
324.417
325.002
325.511
326.058
326.341
326.544
326.788
326.965
327.057
326.983
326.834
326.773
326.458
326.307
325.94
325.293
324.743
324.252
323.721
317.261
317.442
317.87
318.211
318.655
318.812
318.946
319.143
319.254
319.339
319.284
319.151
319.127
318.875
318.803
318.522
318.085
317.685
317.321
316.952
310.376
310.447
310.72
310.926
311.205
311.293
311.341
311.519
311.533
311.652
311.589
311.475
311.482
311.309
311.325
311.144
310.862
310.659
310.385
310.194
303.493
303.502
303.589
303.662
303.744
303.78
303.794
303.859
303.871
303.92
303.889
303.864
303.853
303.805
303.799
303.748
303.647
303.573
303.46
303.425
351.917
352.828
354.187
355.531
356.417
357.185
357.745
358.012
358.403
358.676
358.725
358.547
358.229
357.671
356.874
356.166
355.048
353.904
352.582
351.203
345.091
345.705
346.937
348.109
348.872
349.58
350.032
350.242
350.581
350.827
350.872
350.736
350.506
350.02
349.291
348.678
347.726
346.716
345.593
344.455
338.223
338.615
339.667
340.652
341.396
341.947
342.34
342.514
342.757
342.978
342.999
342.932
342.728
342.34
341.709
341.19
340.403
339.524
338.637
337.667
331.31
331.605
332.398
333.239
333.923
334.33
334.657
334.834
334.941
335.185
335.126
335.127
334.969
334.663
334.126
333.717
333.08
332.326
331.665
330.866
324.376
324.597
325.17
325.849
326.422
326.716
326.947
327.141
327.175
327.412
327.299
327.34
327.192
326.968
326.531
326.216
325.724
325.162
324.699
324.04
317.425
317.576
317.967
318.487
318.892
319.078
319.299
319.444
319.438
319.657
319.514
319.508
319.434
319.264
318.921
318.703
318.381
318.003
317.654
317.195
310.493
310.522
310.785
311.09
311.357
311.437
311.617
311.698
311.685
311.829
311.729
311.717
311.666
311.553
311.379
311.22
311.054
310.828
310.621
310.362
303.507
303.513
303.615
303.719
303.812
303.817
303.886
303.917
303.926
303.948
303.92
303.931
303.914
303.876
303.819
303.754
303.724
303.632
303.571
303.47
352.492
353.413
354.782
355.93
357.045
357.789
358.562
358.803
359.159
359.262
359.139
359.192
358.637
358.256
357.573
356.413
355.437
354.51
353.266
351.737
345.524
346.277
347.444
348.448
349.48
350.089
350.793
350.956
351.226
351.363
351.298
351.293
350.793
350.468
349.896
348.902
348.067
347.257
346.18
344.858
338.536
339.169
340.106
340.939
341.89
342.401
343.011
343.121
343.313
343.439
343.408
343.373
342.947
342.693
342.223
341.428
340.717
340.01
339.066
337.984
331.546
332.076
332.801
333.449
334.284
334.689
335.202
335.315
335.42
335.571
335.519
335.488
335.093
334.93
334.525
333.944
333.305
332.727
331.968
331.118
324.531
324.971
325.507
325.999
326.679
326.965
327.396
327.517
327.509
327.693
327.586
327.599
327.274
327.156
326.839
326.402
325.93
325.449
324.92
324.215
317.522
317.851
318.184
318.585
319.081
319.226
319.589
319.664
319.623
319.792
319.72
319.687
319.466
319.417
319.156
318.85
318.571
318.173
317.823
317.292
310.52
310.726
310.886
311.183
311.462
311.539
311.753
311.801
311.745
311.854
311.863
311.81
311.669
311.694
311.487
311.308
311.17
310.901
310.734
310.369
303.513
303.62
303.644
303.755
303.842
303.863
303.941
303.951
303.912
303.975
303.976
303.972
303.902
303.93
303.835
303.817
303.766
303.652
303.596
303.477
353.155
354.012
355.46
356.313
357.449
358.302
358.898
359.54
359.638
359.749
359.726
359.617
359.304
358.627
358.202
357.082
355.911
354.854
353.759
352.443
346.073
346.769
348.062
348.741
349.78
350.48
351.023
351.598
351.671
351.737
351.724
351.692
351.456
350.81
350.425
349.45
348.448
347.563
346.615
345.507
338.996
339.599
340.665
341.186
342.141
342.687
343.157
343.643
343.695
343.751
343.754
343.75
343.569
343.002
342.651
341.815
340.975
340.257
339.471
338.552
331.951
332.389
333.27
333.694
334.495
334.912
335.274
335.7
335.759
335.817
335.808
335.765
335.629
335.207
334.916
334.228
333.508
332.931
332.305
331.549
324.825
325.191
325.88
326.232
326.85
327.149
327.426
327.79
327.782
327.852
327.877
327.795
327.679
327.399
327.113
326.643
326.054
325.626
325.176
324.502
317.689
318.005
318.47
318.751
319.203
319.387
319.633
319.848
319.838
319.888
319.898
319.83
319.749
319.567
319.361
319.034
318.602
318.328
317.999
317.517
310.637
310.818
311.094
311.258
311.562
311.662
311.765
311.926
311.937
311.96
311.953
311.904
311.862
311.769
311.633
311.461
311.168
311.03
310.836
310.529
303.575
303.631
303.738
303.785
303.897
303.927
303.936
304.015
304.011
303.99
304
303.993
303.977
303.944
303.9
303.821
303.735
303.707
303.644
303.536
353.46
354.355
355.717
356.923
357.748
358.628
359.477
359.9
360.157
360.144
360.251
359.947
359.618
358.901
358.672
357.426
356.362
355.119
354.009
352.651
346.344
347.116
348.216
349.302
350.008
350.787
351.493
351.947
352.127
352.1
352.216
351.964
351.614
351.035
350.88
349.794
348.857
347.779
346.827
345.671
339.211
339.887
340.751
341.726
342.326
342.927
343.537
343.969
344.072
344.073
344.204
343.986
343.662
343.168
343.042
342.136
341.349
340.416
339.605
338.672
332.088
332.644
333.298
334.172
334.664
335.117
335.608
335.966
336.055
336.076
336.188
336.029
335.753
335.338
335.219
334.449
333.809
333.08
332.385
331.669
324.969
325.434
325.853
326.585
326.992
327.306
327.68
327.973
328.058
328.043
328.168
328.036
327.852
327.509
327.394
326.802
326.261
325.721
325.21
324.692
317.87
318.156
318.469
319.006
319.302
319.494
319.759
319.942
320.067
320.036
320.132
320.029
319.927
319.665
319.562
319.171
318.731
318.365
318.032
317.666
310.744
310.916
311.079
311.418
311.629
311.725
311.875
311.972
312.062
312.024
312.134
312.023
311.978
311.783
311.724
311.519
311.243
311.057
310.828
310.641
303.608
303.656
303.699
303.831
303.893
303.933
303.98
304.012
304.032
304.027
304.088
304.02
304.038
303.956
303.938
303.843
303.776
303.712
303.624
303.541
353.694
354.745
356.068
357.183
358.104
358.997
359.708
360.153
360.734
360.574
360.655
360.321
360.029
359.316
358.809
357.759
356.543
355.169
354.054
352.999
346.53
347.446
348.596
349.541
350.317
351.109
351.724
352.108
352.664
352.464
352.549
352.221
352.012
351.383
351.004
350.058
349.037
347.766
346.849
346.006
339.331
340.165
341.108
341.887
342.561
343.292
343.711
344.067
344.553
344.335
344.448
344.174
343.999
343.456
343.192
342.372
341.513
340.41
339.613
338.981
332.174
332.889
333.66
334.323
334.838
335.462
335.721
336.069
336.412
336.247
336.326
336.092
335.972
335.52
335.36
334.716
333.952
333.062
332.38
331.945
325.058
325.582
326.233
326.698
327.126
327.607
327.721
328.062
328.302
328.181
328.222
328.049
327.958
327.617
327.509
327.002
326.37
325.74
325.175
324.826
317.874
318.287
318.776
319.064
319.401
319.729
319.771
320.078
320.204
320.129
320.17
320.074
319.962
319.758
319.632
319.3
318.826
318.373
318.016
317.791
310.722
310.99
311.297
311.47
311.645
311.872
311.87
312.058
312.135
312.09
312.138
312.058
312.022
311.861
311.763
311.585
311.329
311.018
310.844
310.711
303.61
303.689
303.784
303.86
303.9
303.987
303.97
304.032
304.065
304.045
304.076
304.036
304.05
303.985
303.921
303.879
303.807
303.687
303.624
303.589
353.803
354.868
356.196
357.338
358.445
359.346
360.04
360.276
360.846
360.784
360.823
360.523
360.138
359.585
359.03
357.853
356.931
355.418
354.199
353.146
346.625
347.557
348.699
349.68
350.604
351.459
352.026
352.21
352.73
352.64
352.692
352.43
352.158
351.629
351.127
350.183
349.363
348.002
346.968
346.088
339.42
340.263
341.226
342.052
342.82
343.545
343.99
344.129
344.637
344.527
344.554
344.385
344.131
343.632
343.22
342.504
341.703
340.652
339.724
339.033
332.259
332.928
333.709
334.431
335.026
335.622
335.966
336.049
336.509
336.444
336.413
336.339
336.127
335.697
335.336
334.849
334.108
333.315
332.516
331.932
325.074
325.632
326.284
326.803
327.275
327.701
327.969
328.024
328.373
328.339
328.342
328.277
328.097
327.739
327.435
327.093
326.55
325.902
325.29
324.824
317.933
318.344
318.836
319.148
319.477
319.785
319.965
320.002
320.253
320.245
320.234
320.244
320.033
319.853
319.539
319.378
319.01
318.543
318.052
317.721
310.771
311.048
311.356
311.502
311.701
311.864
311.992
312.013
312.169
312.179
312.139
312.211
312.016
311.958
311.705
311.626
311.426
311.137
310.81
310.637
303.618
303.727
303.799
303.825
303.943
303.976
304.018
304.008
304.072
304.088
304.066
304.111
304.017
304.03
303.916
303.9
303.842
303.75
303.642
303.565
353.936
355.158
356.342
357.538
358.78
359.589
360.187
360.493
360.819
361.019
360.932
360.781
360.35
359.712
358.936
358.123
357.197
355.716
354.665
353.183
346.754
347.769
348.779
349.847
350.951
351.629
352.134
352.406
352.722
352.867
352.809
352.663
352.275
351.787
351.093
350.356
349.601
348.308
347.403
346.2
339.543
340.422
341.257
342.191
343.111
343.628
344.097
344.343
344.602
344.699
344.693
344.529
344.193
343.805
343.232
342.63
341.968
340.901
340.156
339.177
332.361
333.054
333.766
334.563
335.252
335.656
336.067
336.233
336.481
336.561
336.569
336.437
336.16
335.829
335.341
334.869
334.382
333.471
332.867
332.113
325.208
325.748
326.28
326.865
327.411
327.738
328.064
328.14
328.337
328.396
328.418
328.349
328.096
327.842
327.514
327.173
326.743
326.079
325.585
325.06
318.009
318.438
318.771
319.128
319.595
319.81
320.028
320.077
320.249
320.253
320.303
320.263
320.066
319.851
319.662
319.439
319.096
318.659
318.29
317.934
310.797
311.099
311.303
311.475
311.771
311.896
312.009
312.07
312.187
312.164
312.158
312.165
312.016
311.917
311.803
311.703
311.462
311.194
310.988
310.761
303.61
303.714
303.796
303.853
303.931
303.982
304.037
304.038
304.08
304.069
304.056
304.08
304.013
303.981
303.958
303.929
303.827
303.742
303.707
303.609
353.874
355.095
356.289
357.539
358.832
359.55
359.947
360.28
360.812
360.996
361.139
360.916
360.497
359.704
359.046
358.045
356.936
355.802
354.549
353.352
346.725
347.743
348.772
349.848
351.022
351.598
351.963
352.246
352.716
352.854
352.934
352.825
352.45
351.787
351.165
350.327
349.341
348.352
347.315
346.27
339.577
340.438
341.25
342.154
343.19
343.635
343.98
344.172
344.591
344.68
344.726
344.71
344.409
343.839
343.264
342.571
341.759
340.902
340.073
339.197
332.386
333.107
333.73
334.485
335.347
335.724
336.004
336.118
336.475
336.501
336.55
336.566
336.338
335.836
335.382
334.8
334.176
333.445
332.789
332.144
325.184
325.819
326.225
326.807
327.462
327.836
328.009
328.078
328.367
328.385
328.381
328.433
328.238
327.827
327.506
327.066
326.538
325.997
325.503
325.032
317.986
318.481
318.741
319.149
319.58
319.881
320.022
320.093
320.259
320.276
320.237
320.312
320.188
319.826
319.628
319.329
318.937
318.584
318.212
317.845
310.82
311.118
311.263
311.516
311.733
311.934
312.011
312.061
312.11
312.169
312.139
312.214
312.161
311.893
311.754
311.609
311.365
311.159
310.939
310.707
303.64
303.715
303.776
303.872
303.924
303.971
304.015
304.028
304.062
304.09
304.067
304.108
304.102
303.976
303.962
303.903
303.802
303.744
303.661
303.58
353.804
355.104
356.382
357.532
358.574
359.492
359.938
360.242
360.64
361.104
360.95
361.118
360.343
359.723
359.043
357.979
356.987
355.957
354.586
353.442
346.713
347.747
348.856
349.834
350.753
351.546
351.858
352.213
352.537
352.962
352.825
352.97
352.31
351.75
351.179
350.229
349.396
348.479
347.313
346.37
339.565
340.401
341.299
342.118
342.959
343.589
343.84
344.196
344.39
344.809
344.731
344.845
344.268
343.805
343.283
342.497
341.788
340.955
340.057
339.287
332.392
333.025
333.778
334.444
335.142
335.638
335.862
336.11
336.281
336.622
336.629
336.707
336.246
335.813
335.404
334.763
334.18
333.488
332.753
332.171
325.229
325.692
326.272
326.766
327.298
327.713
327.906
328.061
328.188
328.437
328.501
328.588
328.193
327.846
327.511
327.063
326.578
326.035
325.467
324.995
318.046
318.372
318.757
319.092
319.547
319.811
319.94
320.027
320.134
320.307
320.354
320.416
320.186
319.865
319.664
319.335
319.016
318.59
318.174
317.829
310.821
311.053
311.268
311.483
311.743
311.893
311.984
312.017
312.099
312.193
312.249
312.266
312.12
311.917
311.81
311.591
311.418
311.166
310.894
310.675
303.613
303.706
303.773
303.84
303.928
303.999
304.024
304.02
304.04
304.09
304.116
304.108
304.06
303.998
303.97
303.866
303.805
303.702
303.658
303.573
)
;

boundaryField
{
    hotSide
    {
        type            fixedGradient;
        gradient        nonuniform List<scalar> 
400
(
438.732
451.884
464.638
476.935
488.72
499.938
510.535
520.46
529.665
538.101
545.728
552.504
558.396
563.37
567.401
570.467
572.549
573.637
573.722
572.804
450.406
463.93
477.046
489.695
501.819
513.361
524.267
534.484
543.961
552.65
560.508
567.494
573.571
578.706
582.873
586.047
588.212
589.354
589.467
588.549
460.885
474.744
488.186
501.152
513.581
525.416
536.601
547.081
556.805
565.724
573.791
580.967
587.212
592.493
596.783
600.058
602.298
603.492
603.632
602.715
470.103
484.258
497.989
511.234
523.934
536.028
547.46
558.173
568.115
577.237
585.491
592.834
599.229
604.642
609.042
612.406
614.715
615.955
616.12
615.206
478.006
492.416
506.395
519.882
532.814
545.131
556.776
567.691
577.822
587.119
595.533
603.023
609.548
615.073
619.57
623.012
625.381
626.663
626.85
625.94
484.551
499.172
513.358
527.045
540.171
552.674
564.496
575.578
585.867
595.31
603.86
611.471
618.105
623.726
628.303
631.811
634.231
635.549
635.756
634.85
489.704
504.492
518.84
532.686
545.965
558.615
570.577
581.793
592.206
601.766
610.422
618.131
624.851
630.548
635.19
638.751
641.213
642.56
642.784
641.883
493.439
508.349
522.816
536.777
550.167
562.925
574.989
586.302
596.807
606.451
615.186
622.966
629.751
635.503
640.193
643.795
646.287
647.657
647.894
646.997
495.742
510.727
525.267
539.3
552.759
565.584
577.712
589.085
599.647
609.345
618.129
625.954
632.78
638.568
643.289
646.916
649.429
650.814
651.061
650.168
496.605
511.618
526.187
540.246
553.733
566.583
578.736
590.133
600.717
610.436
619.241
627.084
633.926
639.73
644.464
648.102
650.625
652.017
652.27
651.38
496.03
511.025
525.575
539.618
553.088
565.923
578.061
589.445
600.017
609.726
618.52
626.355
633.19
638.988
643.717
647.353
649.874
651.266
651.52
650.634
494.025
508.954
523.442
537.423
550.835
563.613
575.699
587.032
597.558
607.223
615.978
623.778
630.582
636.353
641.061
644.679
647.188
648.572
648.824
647.939
490.606
505.425
519.804
533.681
546.992
559.674
571.667
582.915
593.359
602.95
611.637
619.375
626.124
631.849
636.517
640.104
642.589
643.958
644.202
643.319
485.797
500.46
514.688
528.417
541.586
554.132
565.996
577.121
587.452
596.936
605.526
613.178
619.85
625.507
630.119
633.66
636.112
637.458
637.691
636.808
479.629
494.092
508.126
521.666
534.653
547.025
558.723
569.691
579.875
589.224
597.69
605.228
611.801
617.372
621.911
625.394
627.801
629.118
629.336
628.454
472.141
486.362
500.159
513.471
526.237
538.398
549.895
560.673
570.68
579.863
588.178
595.581
602.032
607.498
611.949
615.361
617.714
618.994
619.195
618.312
463.379
477.318
490.84
503.884
516.393
528.306
539.569
550.126
559.924
568.916
577.054
584.298
590.608
595.952
600.3
603.628
605.918
607.157
607.336
606.453
453.398
467.015
480.224
492.965
505.181
516.815
527.811
538.116
547.679
556.452
564.391
571.454
577.604
582.809
587.04
590.275
592.494
593.685
593.841
592.958
442.258
455.519
468.38
480.784
492.675
503.997
514.697
524.722
534.023
542.554
550.271
557.134
563.107
568.158
572.26
575.39
577.531
578.67
578.8
577.919
430.032
442.902
455.382
467.418
478.953
489.935
500.311
510.031
519.047
527.313
534.788
541.433
547.213
552.096
556.058
559.075
561.131
562.215
562.318
561.439
)
;
    }
    coldSide
    {
        type            mixed;
        refValue        uniform 300;
        refGradient     uniform 0;
        valueFraction   uniform 0.991591;
        source          uniform 0;
        value           nonuniform List<scalar> 
400
(
300.024
300.025
300.025
300.026
300.026
300.027
300.027
300.027
300.028
300.029
300.029
300.029
300.03
300.03
300.03
300.03
300.03
300.03
300.031
300.03
300.024
300.025
300.025
300.026
300.027
300.027
300.028
300.028
300.029
300.029
300.029
300.03
300.03
300.031
300.031
300.031
300.031
300.031
300.031
300.031