/*--------------------------------*- C++ -*----------------------------------*\
| =========                 |                                                 |
| \\      /  F ield         | OpenFOAM: The Open Source CFD Toolbox           |
|  \\    /   O peration     | Version:  2212                                  |
|   \\  /    A nd           | Website:  www.openfoam.com                      |
|    \\/     M anipulation  |                                                 |
\*---------------------------------------------------------------------------*/
FoamFile
{
    version     2.0;
    format      ascii;
    arch        "LSB;label=32;scalar=64";
    class       volScalarField;
    location    "0";
    object      T;
}
// * * * * * * * * * * * * * * * * * * * * * * * * * * * * * * * * * * * * * //

dimensions      [0 0 0 1 0 0 0];

internalField   nonuniform List<scalar> 
3200
(
340.902
341.703
342.659
343.3
343.988
344.121
344.865
345.013
345.333
345.302
344.983
344.75
344.395
343.789
343.075
342.238
341.324
340.66
339.505
338.848
335.543
336.217
337.015
337.62
338.222
338.263
338.936
339.06
339.405
339.355
339.017
338.902
338.572
338.084
337.403
336.665
335.834
335.322
334.267
333.783
330.134
330.701
331.401
331.907
332.432
332.43
332.996
333.11
333.373
333.366
333.033
332.971
332.686
332.286
331.735
331.095
330.333
329.972
329.037
328.67
324.669
325.188
325.771
326.199
326.545
326.535
327.004
327.078
327.305
327.339
327.052
327.034
326.765
326.496
326.014
325.492
324.851
324.583
323.806
323.533
319.198
319.613
320.095
320.415
320.675
320.685
321.016
321.077
321.27
321.303
321.053
321.039
320.841
320.655
320.291
319.854
319.34
319.152
318.594
318.347
313.724
314.007
314.367
314.587
314.79
314.752
315.028
315.02
315.21
315.285
315.056
314.988
314.93
314.78
314.499
314.236
313.826
313.706
313.306
313.129
308.251
308.437
308.631
308.773
308.877
308.836
309.051
308.974
309.141
309.186
309.051
309.013
308.955
308.899
308.693
308.569
308.327
308.259
308.011
307.885
302.753
302.841
302.883
302.938
302.971
302.94
303.054
303.008
303.046
303.109
303.025
303.022
302.991
302.982
302.917
302.867
302.817
302.755
302.697
302.624
341.757
342.77
343.785
344.384
345.306
345.561
345.931
346.34
346.505
346.439
346.103
345.95
345.662
345.123
344.33
343.485
342.649
341.892
340.708
339.84
336.276
337.077
338.027
338.491
339.288
339.526
339.881
340.205
340.356
340.263
339.982
339.869
339.611
339.143
338.422
337.689
336.993
336.355
335.33
334.562
330.787
331.368
332.258
332.651
333.265
333.407
333.822
334.045
334.202
334.074
333.853
333.84
333.517
333.143
332.571
331.898
331.344
330.785
329.917
329.286
325.209
325.69
326.421
326.797
327.194
327.345
327.719
327.882
328.001
327.909
327.723
327.734
327.396
327.16
326.686
326.113
325.69
325.171
324.49
324.018
319.594
319.981
320.56
320.898
321.183
321.302
321.621
321.7
321.813
321.738
321.568
321.622
321.287
321.185
320.818
320.364
320.012
319.595
319.072
318.735
314.002
314.29
314.675
314.955
315.138
315.212
315.453
315.516
315.608
315.532
315.426
315.459
315.247
315.155
314.884
314.578
314.322
314.037
313.627
313.391
308.404
308.581
308.804
308.968
309.069
309.115
309.251
309.333
309.403
309.319
309.274
309.308
309.18
309.098
308.906
308.776
308.593
308.393
308.193
308.015
302.822
302.866
302.941
303.007
303.046
303.067
303.103
303.127
303.173
303.126
303.113
303.143
303.096
303.045
302.987
302.946
302.867
302.805
302.741
302.68
343.408
344.289
345.216
346.155
347.017
347.229
347.351
347.822
348.002
348.122
347.729
347.695
347.253
346.619
345.863
345.126
344.416
343.438
342.194
341.38
337.643
338.388
339.192
339.964
340.748
340.887
341.001
341.417
341.565
341.712
341.36
341.361
340.938
340.391
339.747
339.124
338.526
337.638
336.569
335.902
331.891
332.553
333.197
333.802
334.5
334.584
334.697
335.017
335.208
335.275
334.998
335.045
334.662
334.207
333.63
333.14
332.603
331.813
330.938
330.399
326.079
326.679
327.174
327.653
328.22
328.257
328.422
328.709
328.845
328.893
328.641
328.747
328.373
328.005
327.523
327.12
326.687
326.017
325.364
324.914
320.303
320.789
321.158
321.535
321.944
321.968
322.102
322.394
322.445
322.502
322.321
322.389
322.1
321.804
321.4
321.096
320.758
320.266
319.774
319.418
314.505
314.878
315.104
315.373
315.661
315.672
315.783
316.02
316.034
316.107
315.94
316.02
315.826
315.612
315.287
315.08
314.838
314.484
314.137
313.905
308.691
308.92
309.072
309.217
309.417
309.407
309.498
309.614
309.631
309.655
309.576
309.598
309.51
309.377
309.202
309.035
308.894
308.708
308.479
308.37
302.915
302.979
303.033
303.092
303.159
303.15
303.201
303.215
303.218
303.236
303.218
303.212
303.175
303.144
303.079
303.014
302.98
302.918
302.844
302.803
344.829
345.942
346.72
347.606
348.422
348.799
349.251
349.699
349.827
349.844
349.527
349.409
348.921
348.33
347.552
346.723
345.961
344.958
343.84
343.183
338.881
339.806
340.467
341.272
341.955
342.275
342.701
343.077
343.144
343.197
342.925
342.823
342.392
341.864
341.197
340.44
339.816
338.92
337.997
337.465
332.941
333.669
334.233
334.936
335.481
335.739
336.108
336.455
336.467
336.566
336.303
336.235
335.862
335.433
334.85
334.207
333.697
332.912
332.164
331.718
327.01
327.593
327.997
328.593
329.031
329.23
329.551
329.815
329.855
329.904
329.649
329.656
329.415
328.988
328.536
328.019
327.575
326.944
326.334
325.981
321.042
321.509
321.758
322.253
322.576
322.715
323.017
323.185
323.244
323.227
323.057
323.08
322.921
322.546
322.182
321.8
321.446
320.975
320.49
320.199
315.075
315.4
315.552
315.888
316.158
316.243
316.429
316.551
316.611
316.589
316.464
316.495
316.398
316.121
315.866
315.616
315.341
315.026
314.654
314.421
309.074
309.246
309.363
309.531
309.734
309.772
309.871
309.929
309.955
309.955
309.862
309.917
309.846
309.729
309.55
309.389
309.227
309.047
308.823
308.672
303.052
303.11
303.154
303.194
303.283
303.293
303.31
303.307
303.34
303.331
303.291
303.326
303.301
303.259
303.191
303.135
303.108
303.043
302.954
302.912
346.359
347.412
348.192
349.217
349.878
350.563
350.971
351.669
351.611
351.592
351.408
351.106
350.712
350.169
349.445
348.667
347.617
346.613
345.531
344.43
340.134
341.097
341.756
342.605
343.216
343.809
344.153
344.764
344.709
344.723
344.529
344.238
343.958
343.399
342.868
342.125
341.209
340.391
339.48
338.553
333.995
334.787
335.304
336.035
336.534
337.043
337.36
337.878
337.814
337.878
337.652
337.414
337.219
336.718
336.302
335.592
334.848
334.171
333.454
332.636
327.839
328.478
328.845
329.505
329.889
330.283
330.579
331.033
330.962
331.031
330.783
330.597
330.504
330.088
329.737
329.094
328.514
327.945
327.395
326.761
321.656
322.142
322.443
322.965
323.271
323.535
323.79
324.124
324.099
324.133
323.951
323.794
323.76
323.419
323.132
322.623
322.171
321.757
321.306
320.816
315.452
315.858
316.021
316.431
316.619
316.774
316.976
317.241
317.247
317.248
317.096
317.018
317.004
316.743
316.49
316.161
315.827
315.572
315.223
314.892
309.312
309.533
309.606
309.877
309.976
310.07
310.177
310.365
310.373
310.361
310.251
310.217
310.188
310.078
309.877
309.717
309.506
309.345
309.136
308.938
303.14
303.198
303.212
303.3
303.332
303.385
303.419
303.474
303.453
303.49
303.44
303.449
303.435
303.378
303.304
303.254
303.177
303.111
303.056
302.992
347.89
348.892
350.072
350.842
351.601
352.214
352.745
353.283
353.389
353.35
353.232
352.847
352.539
351.96
351.376
350.351
349.462
348.262
347.014
346.076
341.503
342.317
343.393
344.031
344.722
345.252
345.696
346.176
346.24
346.212
346.078
345.78
345.531
345.058
344.519
343.652
342.866
341.843
340.716
339.934
335.136
335.794
336.668
337.223
337.828
338.277
338.635
339.066
339.117
339.083
338.963
338.734
338.576
338.137
337.711
336.957
336.257
335.452
334.486
333.782
328.805
329.279
329.93
330.454
330.925
331.274
331.629
331.994
331.984
331.957
331.854
331.751
331.608
331.255
330.888
330.233
329.66
329.006
328.252
327.676
322.442
322.777
323.279
323.7
324.037
324.316
324.66
324.885
324.858
324.801
324.757
324.718
324.59
324.323
324.026
323.5
323.053
322.569
321.991
321.55
316.087
316.246
316.657
316.919
317.147
317.358
317.675
317.805
317.753
317.685
317.68
317.648
317.611
317.401
317.174
316.786
316.441
316.123
315.753
315.428
309.677
309.752
310.006
310.147
310.289
310.404
310.633
310.708
310.65
310.578
310.627
310.584
310.567
310.468
310.314
310.079
309.855
309.667
309.473
309.305
303.239
303.28
303.358
303.407
303.453
303.499
303.584
303.611
303.575
303.544
303.58
303.53
303.534
303.519
303.449
303.379
303.301
303.241
303.198
303.115
349.385
350.451
351.601
352.485
353.247
353.909
354.34
354.898
355.199
355.109
354.825
354.782
354.268
353.84
353.152
351.935
351.174
349.96
348.604
347.671
342.84
343.68
344.702
345.47
346.152
346.686
347.078
347.543
347.846
347.728
347.488
347.515
347.026
346.646
346.091
344.961
344.335
343.336
342.124
341.329
336.266
336.922
337.823
338.47
339.043
339.504
339.818
340.215
340.487
340.385
340.141
340.237
339.737
339.47
338.974
338.003
337.519
336.689
335.65
334.96
329.673
330.221
330.968
331.49
331.956
332.333
332.561
332.897
333.142
333.035
332.863
332.888
332.54
332.311
331.897
331.062
330.691
330.06
329.162
328.594
323.053
323.513
324.101
324.459
324.862
325.133
325.323
325.577
325.762
325.67
325.594
325.563
325.359
325.16
324.83
324.152
323.86
323.417
322.68
322.249
316.457
316.834
317.214
317.434
317.771
317.964
318.065
318.267
318.388
318.274
318.261
318.246
318.137
317.968
317.746
317.231
317.023
316.74
316.254
315.915
309.869
310.127
310.333
310.484
310.671
310.813
310.847
310.956
311.033
310.907
310.938
310.955
310.897
310.766
310.661
310.303
310.214
310.059
309.767
309.549
303.299
303.399
303.483
303.535
303.586
303.644
303.642
303.664
303.707
303.637
303.646
303.686
303.648
303.608
303.572
303.425
303.422
303.343
303.279
303.199
350.927
351.829
353.243
354.177
354.982
355.554
356.022
356.715
356.867
356.768
356.615
356.352
356.12
355.565
354.648
353.696
352.847
351.451
350.176
349.221
344.188
344.871
346.116
346.904
347.653
348.119
348.537
349.138
349.307
349.202
349.062
348.833
348.615
348.157
347.322
346.506
345.785
344.565
343.412
342.712
337.432
337.921
338.975
339.664
340.326
340.712
341.062
341.605
341.711
341.627
341.515
341.318
341.111
340.721
340.066
339.347
338.714
337.666
336.731
336.146
330.658
331.012
331.869
332.453
333.003
333.294
333.602
334.048
334.086
334.04
334.015
333.765
333.633
333.325
332.772
332.192
331.632
330.802
330.03
329.53
323.839
324.138
324.78
325.22
325.673
325.879
326.145
326.461
326.482
326.49
326.453
326.234
326.125
325.926
325.511
324.993
324.624
323.928
323.369
322.932
317.012
317.24
317.727
318.003
318.322
318.463
318.697
318.91
318.893
318.954
318.852
318.75
318.671
318.572
318.247
317.816
317.58
317.054
316.761
316.385
310.194
310.359
310.705
310.788
310.977
311.085
311.189
311.342
311.322
311.375
311.324
311.291
311.221
311.178
310.989
310.666
310.538
310.233
310.076
309.825
303.419
303.478
303.607
303.619
303.66
303.735
303.737
303.8
303.792
303.809
303.797
303.796
303.781
303.751
303.695
303.589
303.539
303.432
303.385
303.296
352.233
353.164
354.58
355.602
356.467
357.187
357.471
358.126
358.357
358.195
358.216
358.01
357.704
356.98
356.193
355.23
354.301
353.007
351.561
350.554
345.248
346.053
347.265
348.152
348.892
349.531
349.763
350.333
350.523
350.392
350.411
350.243
350.007
349.389
348.687
347.825
347.04
345.9
344.656
343.86
338.286
338.953
339.983
340.787
341.364
341.876
342.14
342.609
342.692
342.627
342.642
342.442
342.299
341.792
341.176
340.416
339.791
338.836
337.806
337.13
331.375
331.835
332.689
333.376
333.867
334.257
334.54
334.849
334.884
334.873
334.891
334.69
334.599
334.189
333.692
333.063
332.547
331.77
330.94
330.361
324.447
324.791
325.415
325.934
326.368
326.611
326.882
327.126
327.104
327.098
327.147
326.996
326.877
326.585
326.24
325.721
325.311
324.691
324.081
323.629
317.478
317.696
318.111
318.504
318.89
318.985
319.228
319.388
319.357
319.347
319.384
319.292
319.207
319.023
318.794
318.35
318.067
317.596
317.21
316.91
310.471
310.606
310.877
311.104
311.39
311.363
311.534
311.623
311.613
311.596
311.605
311.609
311.574
311.428
311.295
311.007
310.862
310.548
310.341
310.155
303.501
303.55
303.663
303.719
303.838
303.802
303.865
303.89
303.885
303.881
303.867
303.906
303.871
303.836
303.779
303.683
303.63
303.524
303.468
303.405
353.524
354.53
355.773
356.835
357.669
358.583
359.136
359.588
359.786
360
359.815
359.647
359.201
358.662
357.69
356.827
355.778
354.208
352.986
352.02
346.401
347.224
348.283
349.242
349.961
350.76
351.165
351.608
351.77
351.988
351.839
351.731
351.285
350.836
349.959
349.236
348.329
346.946
345.866
345.084
339.268
339.956
340.841
341.613
342.268
342.943
343.254
343.698
343.804
343.96
343.884
343.791
343.339
343.025
342.235
341.644
340.88
339.678
338.771
338.187
332.118
332.683
333.385
334.013
334.571
335.127
335.335
335.816
335.843
335.943
335.875
335.84
335.434
335.236
334.542
334.073
333.442
332.489
331.724
331.282
324.964
325.418
325.964
326.424
326.886
327.268
327.477
327.882
327.873
327.912
327.904
327.864
327.577
327.407
326.894
326.497
326.016
325.312
324.697
324.331
317.798
318.17
318.561
318.885
319.192
319.453
319.625
319.921
319.927
319.935
319.981
319.938
319.72
319.569
319.231
318.881
318.591
318.105
317.651
317.366
310.706
310.919
311.179
311.332
311.492
311.637
311.793
311.979
311.963
311.964
311.978
311.986
311.886
311.744
311.55
311.325
311.138
310.903
310.617
310.441
303.607
303.661
303.759
303.808
303.86
303.894
303.955
304.02
304.019
303.998
304.02
304.019
304.008
303.93
303.868
303.786
303.724
303.655
303.562
303.518
354.8
355.831
356.99
358.183
359.021
359.961
360.525
360.915
361.194
361.285
361.268
360.998
360.488
360.173
359.275
358.2
356.948
355.642
354.413
353.071
347.488
348.349
349.354
350.373
351.098
351.937
352.406
352.799
353.005
353.054
353.059
352.87
352.422
352.104
351.361
350.42
349.336
348.177
347.196
346.003
340.196
340.907
341.747
342.598
343.201
343.944
344.301
344.684
344.87
344.803
344.88
344.747
344.341
344.066
343.444
342.637
341.745
340.788
339.968
338.949
332.898
333.429
334.131
334.825
335.322
335.953
336.245
336.554
336.67
336.64
336.743
336.614
336.247
336.062
335.565
334.906
334.156
333.411
332.755
331.895
325.598
326.003
326.525
327.038
327.443
327.993
328.201
328.423
328.497
328.478
328.566
328.425
328.191
328.048
327.7
327.146
326.602
325.994
325.513
324.815
318.305
318.589
318.954
319.28
319.599
320.022
320.172
320.261
320.358
320.36
320.398
320.274
320.144
320.03
319.845
319.361
319.024
318.598
318.25
317.699
311.002
311.17
311.381
311.55
311.774
311.99
312.079
312.164
312.231
312.203
312.249
312.187
312.087
312.06
311.909
311.6
311.451
311.202
310.946
310.593
303.679
303.754
303.809
303.86
303.948
304.022
304.041
304.052
304.108
304.09
304.113
304.107
304.069
304.043
303.99
303.873
303.858
303.764
303.65
303.552
355.998
356.995
358.245
359.363
360.498
361.282
361.925
362.531
362.682
362.756
362.736
362.447
361.816
361.371
360.589
359.639
358.467
356.883
355.57
354.263
348.567
349.426
350.492
351.433
352.402
353.07
353.614
354.158
354.298
354.363
354.293
354.144
353.579
353.175
352.483
351.657
350.694
349.307
348.121
347.019
341.074
341.826
342.753
343.507
344.293
344.813
345.32
345.808
345.928
345.973
345.902
345.852
345.387
344.949
344.382
343.651
342.888
341.714
340.686
339.785
333.613
334.223
334.976
335.592
336.203
336.619
337.068
337.44
337.573
337.601
337.573
337.506
337.119
336.772
336.288
335.683
335.142
334.166
333.316
332.558
326.168
326.674
327.222
327.657
328.147
328.476
328.833
329.15
329.183
329.214
329.257
329.145
328.886
328.608
328.256
327.725
327.335
326.595
325.952
325.339
318.671
319.099
319.499
319.751
320.127
320.35
320.583
320.83
320.829
320.844
320.936
320.814
320.662
320.404
320.227
319.769
319.551
319.021
318.582
318.133
311.221
311.464
311.712
311.864
312.068
312.222
312.359
312.483
312.511
312.495
312.573
312.488
312.451
312.258
312.137
311.885
311.767
311.45
311.156
310.924
303.766
303.861
303.934
303.98
304.038
304.103
304.155
304.18
304.204
304.174
304.195
304.182
304.167
304.131
304.059
303.977
303.952
303.833
303.725
303.667
356.811
358.016
359.216
360.504
361.621
362.553
363.187
363.492
363.997
364.233
364.151
363.788
363.17
362.494
361.519
360.801
359.381
358.139
356.695
355.453
349.225
350.257
351.298
352.4
353.365
354.156
354.692
354.999
355.439
355.644
355.588
355.29
354.74
354.105
353.261
352.644
351.409
350.35
349.135
348.031
341.653
342.51
343.374
344.311
345.151
345.756
346.234
346.524
346.859
347.062
347.064
346.802
346.335
345.729
345.041
344.533
343.478
342.609
341.59
340.616
334.079
334.756
335.497
336.246
336.957
337.407
337.827
338.068
338.338
338.537
338.538
338.292
337.917
337.439
336.869
336.455
335.537
334.863
334.061
333.204
326.499
327.026
327.602
328.18
328.783
329.091
329.425
329.628
329.79
329.951
329.962
329.751
329.527
329.141
328.677
328.363
327.653
327.142
326.508
325.807
318.976
319.313
319.726
320.118
320.504
320.778
321.001
321.197
321.25
321.361
321.389
321.251
321.144
320.837
320.468
320.249
319.82
319.404
318.958
318.463
311.432
311.591
311.867
312.073
312.307
312.466
312.619
312.749
312.775
312.836
312.824
312.767
312.735
312.51
312.286
312.172
311.898
311.678
311.395
311.084
303.83
303.882
303.987
304.059
304.126
304.168
304.245
304.252
304.292
304.304
304.312
304.283
304.264
304.168
304.13
304.081
303.986
303.909
303.846
303.705
357.611
359.017
360.169
361.514
362.584
363.496
364.048
364.752
365.054
365.078
365.089
364.878
364.27
363.434
362.692
361.817
360.745
359.482
357.771
356.348
349.929
351.096
352.141
353.264
354.221
355.019
355.45
356.086
356.344
356.388
356.39
356.172
355.67
354.914
354.335
353.56
352.635
351.538
350.043
348.861
342.167
343.246
344.125
345.024
345.885
346.526
346.916
347.463
347.662
347.685
347.728
347.506
347.061
346.464
345.989
345.321
344.51
343.615
342.335
341.373
334.458
335.362
336.129
336.775
337.557
338.073
338.36
338.849
338.989
339.029
339.072
338.831
338.507
337.985
337.705
337.11
336.448
335.718
334.622
333.874
326.803
327.481
328.086
328.536
329.199
329.654
329.848
330.225
330.347
330.391
330.393
330.174
329.936
329.511
329.35
328.877
328.36
327.816
326.935
326.333
319.145
319.651
320.066
320.36
320.824
321.196
321.322
321.617
321.687
321.721
321.744
321.55
321.374
321.059
320.94
320.633
320.309
319.876
319.237
318.788
311.51
311.807
312.067
312.231
312.491
312.736
312.8
312.983
313.012
313.03
313.105
312.989
312.852
312.674
312.56
312.397
312.19
311.962
311.559
311.253
303.874
303.966
304.06
304.093
304.197
304.251
304.285
304.339
304.369
304.373
304.385
304.37
304.296
304.249
304.218
304.162
304.102
304.015
303.866
303.775
358.529
359.751
361.188
362.473
363.641
364.392
365.168
365.666
365.953
366.023
366.082
365.716
365.14
364.492
363.858
362.752
361.845
360.308
358.524
357.303
350.719
351.72
352.968
354.153
355.124
355.778
356.405
356.878
357.115
357.171
357.247
356.931
356.407
355.857
355.3
354.351
353.559
352.267
350.703
349.708
342.925
343.77
344.813
345.833
346.584
347.198
347.677
348.115
348.321
348.338
348.41
348.151
347.733
347.28
346.8
345.953
345.276
344.258
342.888
342.093
335.126
335.823
336.629
337.502
338.057
338.623
338.987
339.399
339.512
339.521
339.602
339.386
339.027
338.677
338.29
337.596
337.017
336.26
335.092
334.467
327.284
327.876
328.483
329.172
329.567
330.035
330.345
330.658
330.704
330.708
330.83
330.634
330.355
330.096
329.752
329.268
328.776
328.253
327.317
326.818
319.486
319.95
320.296
320.851
321.144
321.448
321.663
321.908
321.919
321.919
322.062
321.898
321.665
321.5
321.251
320.904
320.576
320.194
319.533
319.148
311.701
312.004
312.19
312.537
312.706
312.869
313.02
313.157
313.155
313.152
313.244
313.166
313.045
312.906
312.765
312.56
312.351
312.127
311.741
311.492
303.907
304.036
304.072
304.193
304.265
304.327
304.358
304.391
304.426
304.393
304.43
304.427
304.377
304.315
304.272
304.236
304.142
304.063
303.935
303.878
359.333
360.483
361.906
363.167
364.568
365.385
365.916
366.693
366.892
366.959
367.162
366.691
366.229
365.458
364.628
363.746
362.594
361.189
359.432
358.289
351.425
352.373
353.6
354.714
355.942
356.603
357.123
357.768
357.906
357.981
358.192
357.798
357.386
356.66
355.936
355.194
354.264
353.073
351.46
350.533
343.55
344.291
345.337
346.278
347.305
347.838
348.354
348.83
348.985
349.012
349.208
348.925
348.534
347.939
347.256
346.719
345.906
344.965
343.532
342.781
335.603
336.232
337.077
337.849
338.668
339.102
339.568
339.907
340.077
340.106
340.263
340.056
339.725
339.244
338.658
338.274
337.579
336.814
335.592
335.04
327.701
328.198
328.839
329.41
330.04
330.393
330.778
330.981
331.161
331.206
331.313
331.162
330.944
330.552
330.103
329.783
329.211
328.679
327.684
327.262
319.741
320.159
320.595
321.022
321.439
321.708
321.956
322.108
322.29
322.324
322.342
322.293
322.092
321.875
321.516
321.287
320.863
320.486
319.753
319.486
311.88
312.121
312.348
312.656
312.875
313.042
313.186
313.288
313.424
313.429
313.449
313.414
313.297
313.158
312.919
312.798
312.52
312.299
311.827
311.691
303.995
304.06
304.142
304.265
304.341
304.375
304.418
304.439
304.524
304.511
304.503
304.49
304.454
304.434
304.336
304.282
304.19
304.114
303.951
303.919
359.901
361.243
362.629
363.875
365.235
366.187
366.685
367.157
367.765
367.533
367.769
367.581
367.001
366.33
365.527
364.244
363.057
361.793
360.293
358.856
351.908
353.047
354.204
355.347
356.521
357.338
357.725
358.154
358.668
358.504
358.687
358.526
358.026
357.441
356.764
355.645
354.619
353.574
352.23
350.993
343.932
344.853
345.802
346.813
347.775
348.505
348.78
349.146
349.6
349.459
349.612
349.506
349.084
348.592
348.003
347.074
346.233
345.297
344.178
343.177
335.961
336.674
337.417
338.283
339.064
339.707
339.853
340.194
340.54
340.388
340.567
340.472
340.177
339.721
339.238
338.48
337.786
337.071
336.112
335.314
328.004
328.515
329.091
329.768
330.396
330.892
330.991
331.239
331.51
331.411
331.532
331.48
331.24
330.883
330.524
329.922
329.378
328.834
328.076
327.457
320.039
320.367
320.771
321.248
321.722
322.095
322.174
322.277
322.513
322.412
322.538
322.48
322.307
322.049
321.802
321.387
320.993
320.627
320.017
319.634
312.062
312.256
312.483
312.72
313.051
313.276
313.338
313.351
313.528
313.411
313.539
313.51
313.422
313.259
313.088
312.871
312.608
312.375
312.012
311.827
304.047
304.107
304.186
304.249
304.373
304.461
304.47
304.484
304.519
304.478
304.544
304.522
304.484
304.432
304.39
304.309
304.242
304.152
304.031
303.977
360.311
361.559
363.247
364.475
365.595
366.679
367.196
367.817
368.406
368.354
368.435
368.108
367.699
367.01
366.127
365.153
363.682
362.353
360.878
359.508
352.243
353.346
354.768
355.834
356.815
357.741
358.201
358.723
359.279
359.194
359.253
358.97
358.663
358.065
357.289
356.457
355.171
354.01
352.737
351.562
344.231
345.131
346.321
347.19
348.073
348.83
349.215
349.659
350.144
350.041
350.174
349.867
349.594
349.099
348.488
347.769
346.656
345.764
344.654
343.658
336.218
336.899
337.903
338.6
339.369
339.966
340.247
340.645
341.015
340.883
341.027
340.797
340.562
340.189
339.688
339.056
338.136
337.458
336.555
335.747
328.242
328.752
329.483
330.041
330.624
331.1
331.345
331.603
331.924
331.776
331.845
331.78
331.525
331.236
330.855
330.369
329.604
329.177
328.428
327.825
320.225
320.592
321.096
321.48
321.91
322.225
322.402
322.585
322.807
322.679
322.711
322.759
322.553
322.289
322.063
321.694
321.131
320.836
320.32
319.893
312.157
312.37
312.678
312.909
313.165
313.366
313.483
313.536
313.702
313.589
313.586
313.7
313.551
313.342
313.255
313.008
312.664
312.479
312.249
311.956
304.066
304.168
304.253
304.357
304.405
304.494
304.537
304.517
304.6
304.532
304.518
304.597
304.537
304.465
304.47
304.366
304.247
304.184
304.101
304.01
360.589
361.99
363.482
364.584
366.087
367.11
367.67
368.178
368.854
368.872
368.807
368.544
368.173
367.419
366.694
365.531
364.259
362.821
361.255
360.076
352.51
353.704
354.982
355.939
357.227
358.167
358.585
359.072
359.651
359.639
359.636
359.361
359.046
358.38
357.735
356.81
355.671
354.422
353.087
352.073
344.435
345.397
346.503
347.339
348.39
349.225
349.533
349.944
350.455
350.456
350.448
350.226
349.947
349.363
348.784
348.132
347.084
346.023
344.926
344.081
336.41
337.141
338.075
338.734
339.57
340.309
340.538
340.868
341.317
341.307
341.292
341.074
340.859
340.354
339.911
339.392
338.484
337.671
336.808
336.082
328.352
328.889
329.604
330.16
330.777
331.357
331.57
331.799
332.173
332.157
332.157
331.965
331.815
331.312
331.036
330.658
329.915
329.315
328.658
328.057
320.274
320.617
321.129
321.583
321.998
322.39
322.567
322.686
323.01
322.988
323.004
322.856
322.754
322.354
322.177
321.894
321.353
320.942
320.499
320.063
312.226
312.392
312.663
312.991
313.237
313.465
313.544
313.604
313.836
313.785
313.789
313.727
313.65
313.416
313.328
313.154
312.821
312.605
312.351
312.037
304.117
304.138
304.221
304.357
304.439
304.518
304.542
304.555
304.657
304.61
304.614
304.6
304.578
304.496
304.48
304.415
304.306
304.236
304.135
304.04
361.111
362.396
363.694
364.848
366.375
367.097
367.737
368.393
368.885
369.202
369.11
368.714
368.425
367.677
366.629
365.645
364.653
363.145
361.702
360.446
352.979
354.054
355.17
356.135
357.48
358.103
358.637
359.265
359.657
359.928
359.829
359.489
359.279
358.595
357.66
356.848
356.006
354.689
353.423
352.388
344.817
345.755
346.683
347.464
348.618
349.154
349.568
350.151
350.442
350.658
350.559
350.295
350.118
349.504
348.702
348.103
347.388
346.244
345.174
344.372
336.678
337.415
338.16
338.817
339.75
340.222
340.519
341.024
341.282
341.434
341.319
341.096
341.007
340.46
339.839
339.376
338.768
337.853
336.931
336.323
328.542
329.118
329.663
330.217
330.924
331.335
331.496
331.928
332.132
332.216
332.119
331.935
331.92
331.456
330.982
330.575
330.201
329.49
328.724
328.247
320.405
320.783
321.205
321.588
322.088
322.413
322.495
322.856
322.967
323.023
322.943
322.805
322.81
322.489
322.087
321.794
321.601
321.058
320.55
320.172
312.3
312.479
312.72
312.975
313.242
313.471
313.513
313.756
313.811
313.845
313.8
313.719
313.717
313.516
313.25
313.084
313.02
312.647
312.367
312.11
304.133
304.175
304.254
304.352
304.44
304.512
304.54
304.61
304.632
304.646
304.616
304.601
304.598
304.565
304.439
304.393
304.368
304.228
304.15
304.06
)
;

boundaryField
{
    hotSide
    {
        type            fixedGradient;
        gradient        nonuniform List<scalar> 
400
(
424.471
442.285
459.863
477.124
493.99
510.382
526.219
541.426
555.925
569.643
582.511
594.461
605.432
615.365
624.208
631.916
638.448
643.77
647.855
650.684
435.018
453.39
471.524
489.337
506.748
523.675
540.036
555.751
570.741
584.932
598.249
610.624
621.993
632.296
641.479
649.493
656.298
661.857
666.143
669.134
444.337
463.221
481.865
500.186
518.099
535.519
552.363
568.549
583.994
598.622
612.357
625.129
636.87
647.519
657.02
665.324
672.387
678.172
682.651
685.801
452.372
471.718
490.823
509.603
527.97
545.838
563.121
579.735
595.596
610.624
624.742
637.877
649.961
660.93
670.726
679.299
686.603
692.602
697.264
700.566
459.078
478.831
498.345
517.532
536.302
554.569
572.244
589.24
605.473
620.86
635.322
648.785
661.179
672.438
682.504
691.323
698.85
705.046
709.88
713.327
464.422
484.526
504.392
523.93
543.05
561.663
579.678
597.008
613.566
629.268
644.033
657.786
670.454
681.972
692.278
701.318
709.047
715.423
720.414
723.997
468.381
488.776
508.934
528.766
548.179
567.082
585.385
602.997
619.83
635.8
650.824
664.825
677.73
689.471
699.987
709.222
717.128
723.665
728.799
732.507
470.943
491.567
511.957
532.021
551.667
570.803
589.336
607.176
624.233
640.422
655.658
669.864
682.966
694.893
705.585
714.985
723.044
729.721
734.982
738.801
472.106
492.895
513.452
533.687
553.505
572.814
591.519
609.531
626.758
643.114
658.514
672.879
686.134
698.21
709.044
718.578
726.763
733.556
738.924
742.841
471.876
492.764
513.425
533.766
553.693
573.112
591.931
610.056
627.398
643.867
659.381
673.858
687.224
699.408
710.346
719.982
728.264
735.15
740.606
744.606
470.268
491.189
511.887
532.269
552.241
571.709
590.579
608.759
626.158
642.688
658.263
672.805
686.236
698.486
709.491
719.194
727.544
734.498
740.021
744.087
467.304
488.192
508.861
529.218
549.171
568.624
587.484
605.659
623.057
639.592
655.177
669.733
683.183
695.457
706.491
716.227
724.614
731.61
737.178
741.292
463.013
483.801
504.375
524.642
544.511
563.885
582.674
600.784
618.124
634.608
650.15
664.671
678.094
690.349
701.372
711.106
719.499
726.509
732.1
736.246
457.433
478.054
498.467
518.58
538.299
557.533
576.188
594.173
611.398
627.775
643.222
657.658
671.007
683.201
694.174
703.87
712.238
719.235
724.826
728.984
450.605
470.996
491.183
511.076
530.584
549.614
568.074
585.875
602.928
619.145
634.444
648.746
661.975
674.064
684.948
694.571
702.882
709.839
715.407
719.56
442.579
462.675
482.573
502.185
521.419
540.184
558.392
575.951
592.775
608.778
623.878
637.998
651.063
663.005
673.761
683.276
691.5
698.39
703.912
708.04
433.409
453.15
472.698
491.967
510.867
529.31
547.206
564.468
581.01
596.747
611.599
625.489
638.345
650.1
660.691
670.064
678.17
684.967
690.421
694.506
423.157
442.484
461.624
480.493
499.002
517.065
534.595
551.506
567.713
583.134
597.69
611.306
623.911
635.439
645.829
655.027
662.986
669.665
675.029
679.054
411.891
430.748
449.424
467.837
485.901
503.532
520.643
537.152
552.975
568.033
582.248
595.547
607.861
619.125
629.279
638.272
646.056
652.592
657.846
661.793
399.683
418.018
436.179
454.085
471.653
488.801
505.445
521.504
536.897
551.547
565.379
578.321
590.306
601.271
611.158
619.916
627.499
633.869
638.993
642.847
)
;
    }
    coldSide
    {
        type            mixed;
        refValue        uniform 300;
        refGradient     uniform 0;
        valueFraction   uniform 0.991591;
        source          uniform 0;
        value           nonuniform List<scalar> 
400
(
300.023
300.024
300.025
300.026
300.026
300.027
300.028
300.029
300.029
300.03
300.031
300.032
300.032
300.033
300.033
300.034
300.034
300.034
300.035
300.035
300.024
300.024
300.025
300.026
300.027
300.028
300.029
300.029
300.03
300.031
300.032
300.032
300.033
300.033
300.034
300.034
300.035
300.035
300.035