/*--------------------------------*- C++ -*----------------------------------*\
| =========                 |                                                 |
| \\      /  F ield         | OpenFOAM: The Open Source CFD Toolbox           |
|  \\    /   O peration     | Version:  2212                                  |
|   \\  /    A nd           | Website:  www.openfoam.com                      |
|    \\/     M anipulation  |                                                 |
\*---------------------------------------------------------------------------*/
FoamFile
{
    version     2.0;
    format      ascii;
    arch        "LSB;label=32;scalar=64";
    class       volScalarField;
    location    "0";
    object      relativeErrorField;
}
// * * * * * * * * * * * * * * * * * * * * * * * * * * * * * * * * * * * * * //

dimensions      [0 0 0 1 0 0 0];

internalField   nonuniform List<scalar> 
3200
(
0.0107036
0.0080603
0.00817622
0.00304471
0.00554931
0.00987373
0.0112545
0.00863167
0.0162676
0.0134478
0.00756343
0.0100332
0.0122331
0.00172919
0.000787265
0.0112482
0.00735069
0.00414729
0.00283226
0.00132471
0.00625807
0.00833484
0.00368823
0.00683514
0.00533205
0.00991691
0.0141046
0.0138897
0.00543435
0.0108962
0.0134069
0.00834801
0.0111532
0.0109734
0.00854689
0.00566714
0.00680423
0.000968009
0.00616047
0.00905846
0.00818609
0.00345068
0.00394891
0.00389153
0.00570075
0.0115479
0.00217997
0.00837086
0.00350133
0.00546599
0.00990567
0.00768247
0.00877044
0.0109199
0.0069699
0.00906341
0.0084078
0.00272256
0.00242112
0.00681322
0.00676825
0.000924055
0.00120537
0.00475492
0.0106795
0.00438357
0.00320939
0.0101357
0.00485391
0.00968616
0.0114506
0.00759724
0.00525797
0.00520246
0.00599608
0.00362493
0.0063829
0.00478269
0.00593907
0.00183806
0.010236
0.00416115
0.00840546
0.00261496
0.00150751
0.00374407
0.00517135
0.00669754
0.0069831
0.00518784
0.00368969
0.00870199
0.011069
0.00592753
0.00159889
0.00765147
0.000549376
0.00397441
0.00821843
0.0037172
0.00424082
0.00348951
0.000664234
0.000956097
0.000952983
0.0025815
0.00111659
0.00787291
0.00276075
0.000641853
0.00102985
0.00387248
0.00357744
0.00512761
0.000348153
0.00104158
0.000640489
0.00475368
0.00402379
0.00424559
0.00216503
0.00387787
0.00294995
0.00194674
0.00556851
0.00235518
0.00284861
0.000678142
0.00127973
0.00614268
0.00140586
0.00480487
0.00541739
0.000852486
0.00249048
0.00025879
0.000264278
0.00351516
0.00112458
0.00596873
0.00143823
0.00389354
9.59895e-06
0.00219271
0.00340285
0.00394131
0.000627529
0.00294281
0.000769716
0.00542191
0.000351193
0.00418602
0.000696957
8.25622e-05
0.00207551
0.000882443
0.00821468
1.45528e-05
0.00715215
0.000953387
0.0106551
0.00144868
0.00174569
0.00441722
0.00399512
0.0100248
0.00875709
0.00940465
0.0065792
0.0108335
0.00909867
0.00723926
0.0122385
0.0123796
0.00761343
0.00644704
0.00171799
0.00490373
0.000830531
0.00279939
0.00706999
0.000416771
0.000744837
0.00046251
0.009499
0.000422323
0.00383201
0.000783503
0.0112339
4.42419e-07
0.00117472
0.0102022
0.00010273
0.0106139
0.000647923
0.00805822
8.73543e-05
0.0112638
0.00194288
0.00370522
0.00532752
0.00443532
0.00139114
0.00168378
0.0107041
0.00417596
0.008406
0.00890353
0.00911967
0.00767318
0.012746
0.00598186
0.007415
0.0104297
0.00659363
0.00437238
0.00136063
0.00378534
0.00477802
0.00262966
0.00807265
0.00435283
0.000281075
9.70019e-05
0.0111618
5.69711e-05
0.00850682
0.000601539
0.00610658
0.00638947
0.00915267
0.00571945
0.00224182
0.00228834
0.0084397
0.00538401
0.00739708
0.00303376
0.000866031
0.00338313
0.000331987
0.000941603
0.000582974
0.0004223
0.00129459
0.00514196
0.0117755
0.00359173
0.00430971
0.00487084
0.000651199
0.00554802
0.00522543
0.00787075
0.00288038
0.00898735
0.00356433
0.00594412
0.00405172
0.00473781
0.00895645
0.00595437
0.0037988
0.00321471
0.00678168
0.00111479
0.000880889
0.00587888
0.00294852
0.00785036
0.00288087
0.00407328
0.000576099
0.00301762
0.00253415
0.00353347
0.00228969
0.00138759
0.0035708
0.00295914
0.00428645
0.000362546
0.00226867
0.00454187
0.00222841
0.00476052
0.00233346
0.00243755
0.00288587
0.00414387
0.000944294
0.00142741
0.00222407
0.00199221
0.00390089
0.00230606
0.00232875
0.00320247
0.0022075
0.00207323
0.00193217
0.00067036
0.0022598
0.00139946
0.00263937
0.00501045
0.00320626
0.00256979
0.0049525
0.00209561
0.000528565
3.2621e-05
0.00328634
0.00449862
0.00229385
0.000197289
0.000390732
0.00604929
0.000228702
0.00255757
0.0133828
0.00711448
0.00186844
0.00180518
0.00697367
0.0082171
0.00362995
0.00842743
0.0057164
0.00182807
0.001816
0.00426853
0.00745235
0.0143476
0.00636755
0.00640574
0.0021767
0.000172097
0.00269036
0.00146161
0.00165042
0.000868463
0.000348979
0.00940111
0.00948411
0.00706511
0.0106656
0.00763556
0.00905055
0.00341642
0.00666971
0.00704106
0.0135227
0.000720495
0.00695117
0.00298368
0.000991102
0.000147226
0.00995136
0.0178254
0.0102434
0.00177238
0.000712221
0.00348724
0.0120124
0.00184341
0.00542672
0.00868609
0.00707782
0.0116506
0.0067178
0.00797793
0.0115174
0.00749723
0.00027485
0.00275027
0.0084186
0.00494699
0.00125625
0.00115572
0.00471137
0.00189743
0.000937767
0.00148573
0.00246688
0.0119649
0.00707569
0.00671203
0.00509969
0.00559038
0.00773407
0.00876133
0.00159193
0.00834165
0.00466499
0.00286874
0.00227622
0.00516444
0.00212665
0.00180551
0.00706479
0.000698208
0.00480758
0.00709781
0.00676625
0.00957612
0.00655345
0.00752526
0.000589911
0.00461038
0.00511529
0.0033639
0.00616883
0.00194259
0.00143942
0.00736463
0.00527741
0.000747491
0.00135271
0.00321378
0.00254197
0.00420867
0.00047827
0.0029336
0.00624119
0.00021874
0.0019606
0.000640264
0.00419056
8.20005e-05
0.00622877
0.000797426
0.00446328
0.00345177
0.00295513
0.00394836
0.00245205
0.00124109
0.0042567
0.00862168
0.0031838
0.00149564
0.010893
0.00451689
8.47747e-05
0.00372129
0.00822474
0.00421817
0.00480558
0.000727006
0.000166541
0.00171547
0.00141181
0.00488576
0.000804954
0.000692564
0.0013457
0.00250873
0.00292557
0.0012113
0.00204619
0.00553604
0.00138844
0.00706235
0.00253387
0.00297086
0.00666377
0.00205926
0.00418936
0.00125747
0.00326556
0.000355962
0.000770115
0.00529374
0.00345588
0.000650933
0.00158782
0.000376881
0.00221959
0.000466985
0.00671969
0.00240036
0.00513799
0.00580866
0.00776145
0.00679129
0.00623862
0.00695474
0.00225179
0.00334364
0.00387431
0.00974816
0.00371065
0.00270603
0.00200617
0.00460204
0.00152876
0.00168305
0.00231451
0.00571738
0.00944297
0.00100787
0.00286965
0.000476257
0.0132868
0.000459358
0.012657
0.000207492
0.00546571
0.000773524
0.00111894
0.00741092
0.00133379
0.00444925
0.000635639
0.0018193
0.000123268
0.00516177
0.00082467
0.00452154
0.00469475
0.00862186
0.00318478
0.0020037
0.00562024
0.0112285
0.00525449
0.00751656
0.00748147
0.00535236
0.00104226
0.00338402
0.0048579
0.00361681
0.0059494
0.0059752
0.000344265
0.000631434
0.00563496
0.00623548
0.0065771
0.000378818
0.00175374
0.00250435
0.00472355
0.00834292
0.00889471
0.00455668
0.00402375
0.00567077
0.00350085
0.0016734
0.00252766
0.00458644
0.0087963
0.0045068
0.00471625
0.00181642
0.00293775
0.00236957
0.00452326
0.00637789
0.00497059
0.000946608
0.0109081
0.00204761
0.00145304
0.00036175
0.00576294
0.00810628
0.00286565
0.000256423
0.00612486
0.00533184
0.00736272
0.00323257
0.00426273
0.000706334
0.000772614
0.00877777
0.00557244
0.00241599
0.000888962
0.00248186
0.00312797
0.00682135
0.00134388
0.00234722
0.00778292
0.000499679
0.00254342
0.00617033
0.00510342
0.000146065
0.00305188
0.00242597
0.00219356
0.00358259
0.000129549
0.0122751
0.00331875
0.00134184
0.00136559
0.00653955
0.00249515
0.00756921
0.00240787
0.00237946
0.000838155
0.0047123
0.00011844
0.00383798
0.00340588
0.00305608
0.00574227
0.00620768
0.00422168
0.00518359
0.00496542
0.00338701
0.00182548
0.0100323
0.00272984
0.00415626
0.000521343
0.00406581
0.00534736
0.00132593
0.00315033
0.0066792
0.00266181
0.00120747
0.00128805
0.00147591
0.00298452
0.000176615
0.00108139
0.00265468
0.0020889
0.00180752
0.0105497
0.0104985
0.00115338
0.00605765
0.00262068
0.00604768
0.00334138
0.00200507
0.000932519
0.000899507
0.00662299
0.00395271
0.0046624
0.00200077
0.00416987
0.00442786
0.00350999
0.000405163
0.00101877
0.0115102
0.0114307
0.00612874
0.00255569
0.00125589
0.000718796
0.004767
0.00391569
0.00243536
0.00157112
0.000143686
0.00850402
0.00423378
0.00745333
0.00391863
0.00604585
0.00692327
0.00355293
0.00288731
0.0056642
0.00740335
0.00381941
0.0140338
0.00120862
0.000534829
0.00383371
0.0023375
0.00327284
0.00652476
0.000379759
0.00175793
0.00165758
0.00195847
0.00530409
0.00166842
0.000614203
0.0011739
0.00570594
0.000851823
0.00817244
0.00423794
0.0017912
0.00104576
0.00514007
0.00252754
0.00137485
0.0065855
4.99295e-05
0.00436107
0.00175658
0.00158009
0.00298641
0.00191943
0.00205269
0.00334747
0.000289753
0.00883325
0.000331168
0.000768346
0.00154552
0.00161878
0.00512652
0.00432229
0.00170104
0.00211177
0.00292497
0.00237928
0.00339713
0.0048334
0.00711035
0.0016099
0.00239685
0.00106177
0.000934423
0.00295462
0.000957914
0.00107948
0.00275475
0.00213634
0.00241691
0.00868041
0.00324271
0.000912644
0.00466269
0.00153367
0.00673778
0.000750892
0.00159635
0.00365393
0.00272005
0.00169777
0.000726798
0.00664668
0.00231329
0.00436962
0.00443202
0.00454302
0.00337347
0.00216804
0.00145611
0.00511393
0.00136925
0.00292743
0.00377053
5.27521e-05
0.00534854
0.00136383
0.00278998
0.00988837
0.000717411
0.00491292
0.00421064
0.00514949
0.00684171
0.00093187
0.000823389
0.00280067
0.00129749
0.000434535
0.00249353
0.00134483
0.00096075
0.000265819
0.00270343
0.00554885
1.90743e-05
0.00234289
0.000330225
0.00551649
0.00477997
0.00602446
0.00735094
0.00249036
0.00119535
0.0068106
0.00417961
0.00210376
0.00331183
0.00495254
0.000604983
0.00212327
0.00721405
0.0110484
0.00281154
0.00234069
0.00195276
0.00787455
0.00391663
0.00555847
0.001327
0.000556051
0.00651016
0.00380989
0.00032071
0.00162136
0.000247689
0.000949023
0.00357743
0.00655809
0.00664232
0.00721535
0.00611224
0.000340974
0.00398997
0.00102179
0.00175575
0.00209017
0.000869806
0.00141405
6.63758e-05
0.00125971
0.000558769
0.00553329
0.000453495
0.00225957
0.00151062
0.000275301
0.000176592
0.00358326
0.00152947
0.0127661
0.0107008
0.00219427
0.00189219
0.00124143
0.0042815
0.0053015
0.00184217
0.00322177
0.00832339
0.0040989
0.000712178
0.0054395
0.000973703
0.00383074
0.000704815
0.000496808
0.000549061
0.00151849
0.00308978
0.00423065
0.0027575
0.00260755
0.00125818
0.00154671
0.00934022
0.00647911
0.00205974
0.00220603
0.000132248
0.0016901
0.00186486
0.00457116
0.00237396
0.00538314
0.000306568
0.00697266
0.00747014
0.00397487
0.00620461
0.0113831
0.00806447
0.00460657
0.00185226
0.00108155
0.00012837
0.0084655
0.000606613
0.00429265
0.00662425
0.00106295
0.000892538
0.00502968
0.00565412
0.000494019
0.00361076
0.0050703
0.00074547
0.00234274
0.00114611
0.00106209
0.00381682
0.00266039
0.00741654
0.00688862
0.00769126
0.000390426
0.00572699
0.00443895
0.00381193
0.0012206
0.00257264
0.00316392
0.00133547
0.0025621
0.00104779
0.00179698
0.00113759
0.00247923
0.00319979
0.00271188
0.00175326
0.00167454
0.00014748
0.0032487
0.00667405
0.00225888
0.00274428
0.00123291
0.00118259
0.000424664
0.00278529
0.00415507
0.00212893
0.00434375
0.00281587
0.0018158
0.00201041
0.00339478
0.00252119
0.00335877
0.00157362
0.00121642
0.000677263
0.00390784
0.00459008
0.00288426
0.00135109
0.00291062
0.00502841
0.000855053
0.00153741
0.0038146
0.00468931
0.0039623
0.00167153
0.00225695
0.00138588
6.29295e-05
0.00350845
0.0014213
0.0092445
0.00755012
0.00261281
0.00482755
0.000635634
0.0017696
0.000271712
0.00398108
0.000617182
0.00346832
0.00354681
2.64683e-05
0.00192027
0.000499966
0.0033169
0.00475771
0.00346705
0.000771051
0.00691753
0.0112169
0.0198976
0.00716192
0.00369502
0.00109562
0.000353795
0.000495285
0.00365926
0.00148515
8.94214e-05
0.00215426
0.00537038
0.00442895
0.00416686
0.00102001
0.00173091
5.42661e-05
0.00246501
0.00237201
0.00793959
0.00780747
0.00733122
0.00367002
0.00253098
0.00836248
0.000142921
0.00346076
0.000973078
0.00205261
0.00103286
0.000606299
0.00377299
0.00250459
0.0037799
0.00215796
0.00145611
0.00571001
0.00171073
0.00221939
0.00687257
0.00426404
0.0117313
0.00528862
0.0011785
0.00479868
0.00268089
0.00390101
0.00231283
0.00123473
0.00414797
0.0046898
0.00499023
0.000152695
0.00716352
2.8298e-05
0.00484686
0.00148041
0.00120233
0.00176378
0.00302344
0.00428923
0.00504165
0.0107664
0.0064085
0.00079904
0.000419104
0.000913345
0.00199805
0.0037664
0.0031913
0.00435741
0.00264227
0.0027746
0.00491063
0.000374464
0.0067632
0.00771167
0.0038369
0.00104625
0.00252209
0.00956483
0.00573147
0.00143639
0.00380067
0.0032734
0.0028546
0.00216187
0.00212627
0.00393607
0.00450127
0.000875731
0.00285434
0.000533843
0.00336585
0.00609413
0.000405719
0.00176014
0.00304758
0.00166437
0.00204935
0.00646299
0.0061717
0.00319999
4.71014e-05
0.00219353
0.000915776
0.00139375
0.000430265
0.00166738
0.000514935
0.00111672
0.00111326
0.000865946
0.000747008
0.00462516
0.00125018
0.00119372
0.00259574
0.00322994
0.00297574
0.00349367
0.00309045
0.00210425
0.0017231
0.000662197
0.000198329
0.000865003
0.000294513
0.000550215
0.00193171
0.000813831
0.00403
0.00378347
0.00176009
0.00452763
0.00204745
0.00868325
0.00083318
0.000898014
0.00179318
0.0023823
0.0106801
0.00448179
0.00438591
0.00688362
0.00732303
0.000363925
0.00252854
0.00198503
0.0108108
0.0062761
0.00900029
0.00234977
0.00494414
0.00482122
0.00740028
0.000423042
0.00415183
0.000172389
0.00735333
0.0100001
0.0103506
0.000832422
0.00336214
0.00149449
0.0035916
0.000581727
0.00354845
0.000848661
0.010799
0.000143188
0.00104565
0.0062536
0.00106827
0.00763534
0.000353937
0.00510166
0.000576632
0.0109247
0.00225373
0.00991202
0.015955
0.00271795
0.00484337
0.00530629
0.004819
0.00383445
0.00210848
0.00716745
0.00526316
0.00758715
0.00599609
0.00379534
0.000534233
0.00653829
0.00407757
0.00544322
0.000160122
0.00503623
0.000355817
0.00767044
0.00973504
0.00988572
0.000568816
0.0046072
0.00138731
0.00227654
0.0041879
0.00221669
0.00641195
0.00733614
0.00274068
0.00100454
0.00193747
0.00232454
0.00291683
0.00140179
0.00375699
0.00790603
0.00833742
0.00278328
0.007424
6.19424e-05
0.00464636
0.00253372
0.000922263
0.00304386
0.00112127
5.68022e-05
0.000538629
0.00435317
0.00157467
0.00518295
0.00563698
0.00147067
0.00102869
0.00208689
0.00187193
0.000893741
0.00695216
0.00743468
0.000457173
0.00184831
0.00433576
0.00180092
0.00114
0.000944428
0.00625133
0.00028418
0.00380861
0.00357527
0.004992
0.00200826
0.000117283
0.00286282
0.00191509
0.00322348
0.000286026
0.00310137
0.00735902
0.00453382
0.00528273
0.000190405
0.00196732
0.00276324
0.00311776
0.002922
0.00458098
0.000312708
0.00345319
0.000530165
0.00213039
0.000337987
0.00104738
0.00390461
0.00143936
0.00025889
0.00412884
0.000194943
0.00532496
0.000709007
0.00707928
0.00624033
0.00596882
0.00332894
0.00279637
0.0017413
0.00062127
0.00238366
0.0034688
0.00748006
0.00319334
0.000136349
0.000158647
0.0074277
0.00534757
0.00110854
0.00165065
0.00683706
0.00364702
0.00179709
0.0116834
0.00611325
0.00805218
0.00149697
0.00634757
0.00215383
0.0046139
0.00353251
0.00411282
0.00602443
0.00483708
0.00445615
0.00991365
0.00107718
0.00731372
0.00445643
0.00323547
0.00571161
0.00252896
0.0130341
0.00547281
0.0069321
0.00692271
0.00606089
0.000371521
0.00154411
0.00267358
0.000837838
0.00710276
0.00346565
0.0110869
0.00926536
0.00451882
0.00353148
0.00362495
0.00083582
0.00295643
0.00774978
0.00474897
0.0100835
0.0145705
0.0102646
0.00205167
0.00333467
0.00221791
0.00150389
0.00221756
0.00147848
0.00683077
0.00690473
0.00629245
0.00459568
0.00212114
0.00224408
0.00809383
0.00139456
0.0058066
7.07214e-05
0.00441139
0.00931917
0.00849521
0.00810227
0.00693639
0.00411814
0.0027036
0.00219
0.00628408
0.00180313
0.00274872
0.00143206
0.00206723
0.00342108
0.00106625
0.00103204
0.00053476
0.00307001
0.00332637
0.00490435
0.00440943
0.00776898
0.00409553
0.0033016
0.000224339
0.00348968
0.00330022
0.00123621
0.00210944
0.00112002
0.00107921
0.00166949
0.00329074
0.00793464
0.0041029
0.00365502
0.000456431
0.00131067
0.0106645
0.000266774
0.0043077
0.0115242
0.00356229
0.00314667
0.00545952
0.000528357
0.00204525
0.00373117
0.00495134
0.000940064
0.0038493
0.00220358
0.00280096
0.00277394
0.00296353
0.000317846
0.00610981
0.00300968
0.00201273
0.00653879
0.00104787
0.000707744
0.000434846
0.000320562
0.00213739
0.00064479
0.0083209
0.00273836
0.00484612
0.00688312
0.00390596
0.00822734
0.000551521
0.00519648
0.00189733
0.0016529
0.00249658
0.00121353
0.000152125
0.00119559
0.000767218
0.00500404
0.00233179
0.00268427
0.00213925
0.00212717
0.0039535
0.000133387
0.00322638
0.000935497
0.001343
0.002412
0.00153193
0.00220143
0.0012888
0.000397434
0.000368863
0.00395887
0.00276077
0.00248213
0.00238597
0.00391761
0.0135577
0.00918504
0.00800881
0.00276241
0.00481721
0.00642299
0.00216717
0.00756501
0.00562436
0.00708298
0.00727425
0.0126393
0.00775794
0.00586619
0.010287
0.00155834
0.00738435
0.00622351
0.000863481
0.0101739
0.0161456
0.000388283
0.005552
0.000302888
0.00161936
0.000217872
0.00749229
0.00139543
0.00324584
0.000724405
0.000933839
0.00791635
0.00174136
0.000984672
0.000319396
0.00095872
0.00133341
0.0029524
0.0012217
0.00578084
0.00889596
0.00595555
0.010854
0.00343985
0.00282554
0.000626592
0.00269486
0.00099861
0.00628418
0.00388331
0.00767169
0.0109701
0.0041046
0.00135118
0.000723961
0.00430038
0.0012553
0.00307045
0.0067499
0.013156
0.000356613
0.00898644
0.00709438
0.00258516
0.00344331
0.00134733
0.00475614
0.00459307
0.00457669
0.00361574
0.0102366
0.00777384
0.000164956
0.00670454
0.0100319
0.000526481
0.00353522
0.00345344
0.00667298
0.00274079
0.00566741
0.00323939
0.00191273
0.00205236
0.00182806
0.00225094
0.00791335
0.00832099
0.00425024
0.00468374
0.00290239
0.00369621
0.00850529
0.00362945
0.00269104
0.00554716
0.000165542
0.00596079
0.000875644
0.0111116
0.00345437
0.000997168
0.00154378
0.00521345
0.00216859
0.00488115
0.00473843
0.00348045
0.00419122
0.00293474
0.00437096
0.00085815
0.00472263
0.00287608
0.00149313
0.00677726
0.000529708
0.00327899
0.00187049
0.00723155
0.00726738
0.00350263
0.00120977
0.000476588
0.00216937
0.00202118
0.0004438
0.00792026
0.00893982
0.0055885
0.000953254
0.00393328
0.00168319
0.00645667
0.0023124
0.00352287
0.00109046
0.00311613
0.00509837
0.00205962
0.00407957
0.000901848
0.00135857
0.0105778
0.00292686
0.0053306
1.552e-05
0.000991984
0.00254717
0.00323394
0.00280208
0.00460103
0.00252304
0.00357505
0.00295063
0.000939034
0.000782171
0.00124977
0.00249445
0.00506514
0.0144933
0.00840662
0.00879506
0.00237519
0.00111162
8.78139e-05
0.00594859
0.0073779
0.00732636
0.00437446
0.00755941
0.0102359
0.00916799
0.0126649
0.00567568
0.00166806
0.00920468
0.00774101
0.0103067
0.0158431
0.0148093
0.00033152
0.00918037
0.000609879
0.0020417
0.000604442
0.0031976
0.000259132
0.00209157
0.00128569
0.00270282
0.00828653
0.000170876
0.00140229
0.000897819
0.0110688
0.00113439
0.00791491
0.00026877
0.00687818
0.0114343
0.00151691
0.00662356
0.00456127
0.00330266
0.0012018
0.00307968
0.00695069
0.00925263
0.00618341
0.00595608
0.00343594
0.00707029
0.00138237
0.00590629
0.00633152
0.00591079
0.00625147
0.00400706
0.0075454
0.00425451
0.00568608
0.00153149
0.00563743
0.000527715
5.01722e-05
0.00451859
0.00213004
0.00167158
0.00696868
0.00537984
0.00738487
0.00105022
0.00664681
0.00268946
0.00224135
0.00191525
0.00273603
0.00265502
0.00913294
0.00585463
0.00488778
0.00579112
0.00315356
0.00228834
0.00232037
0.00120918
0.00156766
0.0039778
0.000477706
0.000382594
0.00253745
0.0067951
0.00066897
0.00109637
0.00177559
0.00153807
0.00359569
0.00127966
0.00594302
0.00518975
0.00496187
0.0063951
0.000626522
0.00326786
0.00399383
0.00598323
0.00717157
0.00169714
0.00257329
0.00731848
0.000847195
0.000332188
0.00185765
0.00116152
0.00211123
0.00766798
0.00404179
0.0017708
0.00175727
0.0106168
0.00565859
0.00224918
0.00081141
0.000906407
0.00252271
0.00287572
0.00984277
0.000252171
0.0091901
0.00437773
0.00143475
0.000992711
0.00310863
0.00211064
0.00033967
0.00224181
0.0033247
0.00395115
0.003051
0.00396654
0.00272841
0.00320117
0.00046007
0.00266208
0.00380321
5.47201e-05
0.00306235
0.000952455
0.00470798
0.00636308
0.00154981
0.00182988
0.00182061
0.00300727
0.00230926
0.00221299
0.000761146
0.000661025
0.00123352
0.0127295
0.00981682
0.00549565
0.0033553
0.00540826
0.0038986
0.00186423
0.00908042
0.00790427
0.00992178
0.0042719
0.00885511
0.00868825
0.0106503
0.0048998
0.00606248
0.00260939
0.00383511
0.00746038
0.00530366
0.0107912
0.00317301
0.00222378
0.00256592
0.00445818
0.0050486
0.000458387
0.00657157
0.00824085
0.00595526
0.00940416
0.00762533
0.0047656
0.00700991
0.00735536
0.00966042
0.00370195
0.00758261
0.00641707
0.00929023
0.0115958
0.000519274
0.0045825
0.00306313
0.00366706
0.00409775
0.00199656
0.00786395
0.00280929
0.00238706
0.00267992
0.00929575
0.00388446
0.00559053
0.000894646
0.00128332
0.00135485
0.00465231
0.00495332
0.00999501
0.00681278
0.00213616
0.00445675
0.00132114
0.00178393
0.00573427
0.00160185
0.00140278
0.000940802
0.00407489
0.00531384
0.00751321
0.00280553
0.00699504
0.000168381
0.000550869
0.00942938
0.00386005
0.00487059
0.00468546
0.0127997
0.00778493
0.00917529
0.00695812
0.00160589
0.00479193
0.00245188
0.000704056
0.00859199
0.00593308
0.00552233
0.00411806
0.0035224
0.0026506
0.00458682
0.00750456
0.000240744
0.00112375
0.00051433
0.00725518
0.00426268
0.00148654
0.00278106
0.00305582
0.000166638
0.000721021
0.00057714
0.00421055
0.00694097
0.00141802
0.00119438
0.00493959
0.00606809
0.0035548
0.000585145
0.00220687
0.00204627
0.00118459
0.00156796
0.00855802
0.00214169
0.00234443
0.000264764
0.00571107
0.00330195
0.00255161
0.00171886
0.00113653
0.00193484
0.00691254
0.00788749
0.00228148
0.000165337
0.0015054
0.00327881
0.00306941
0.00249127
0.000540515
0.00151181
0.00346261
0.00200583
0.000637748
0.00268866
0.00130251
0.00796134
0.00091332
0.00269215
0.00173347
0.00749354
0.00174381
0.00209847
0.000908154
0.00371037
0.000139967
0.00572244
0.00129147
0.00546835
0.000895641
0.00223597
0.00515474
0.0165544
0.0117256
0.00417658
0.00127445
0.00682082
0.00484321
0.00471863
0.00517026
0.00818059
0.00688941
0.00707703
0.0134394
0.0102712
0.00155871
0.000768496
0.00274258
0.00255489
0.00822317
0.000963092
0.013596
0.0137906
0.000747793
0.00188133
0.00092853
0.00224805
0.00132602
0.00405978
0.000362791
0.00735031
0.00150511
0.000732202
0.00298086
0.00134405
0.00315991
0.00249427
0.000343762
0.000620516
7.49271e-05
0.000318758
0.0115052
0.00882248
0.00259162
0.00141464
0.00168598
0.002593
0.000468519
0.00641471
0.0051417
0.00960061
0.00519961
0.00642932
0.00524659
0.00475457
0.00433415
0.000465365
0.00215232
0.00802092
0.00488699
0.00408407
0.0143484
0.00919143
0.0068188
0.00031118
0.00678944
0.0037291
0.00144228
0.00421054
0.000738356
0.00990553
0.00139775
0.00732014
0.000642699
0.00440964
0.00620374
0.00341612
0.00164659
0.00333483
0.00597293
0.00480117
0.00657381
0.00474071
0.00856275
0.00251804
0.00124121
0.000623209
0.00104568
0.00677716
0.00517106
0.00166899
0.00501941
0.00194549
0.0079039
0.00323748
0.00298743
0.00775545
0.00388657
0.000746911
0.00117026
0.00710365
0.0085119
0.00834666
0.00406175
0.00512176
0.00160004
0.00492522
0.00361403
0.000469685
0.00103553
0.00538345
0.000642117
0.00253068
0.00135852
0.00137419
0.00606517
0.000939228
0.00511437
0.00438242
0.000694254
0.00111694
0.0120198
0.00104685
0.00436803
0.0014038
0.00259123
0.00467209
0.0020545
0.00470966
0.00304535
0.00570199
0.00541531
0.00187407
0.00445669
0.00174372
0.000871794
0.00226112
0.000995846
0.00314089
0.000726212
0.00496655
0.0029954
0.00247955
0.000453523
0.00587875
0.000828646
0.00178251
3.5781e-06
0.000704741
0.00360745
0.00075079
0.00353935
0.00121353
0.000964484
0.00111537
0.0005388
0.00401608
0.00597825
0.000725172
0.00831
0.0072741
0.00155354
0.0109575
0.0100463
0.00353127
0.00914858
1.76977e-05
0.00327227
0.0044636
0.00261035
0.00605528
0.00250151
0.00722825
0.0031961
0.00644914
0.00841806
0.00175269
0.000897778
2.43062e-06
0.000612329
0.00558177
0.00766378
0.0117077
0.00623479
0.00679251
0.00235397
0.00112258
0.00177023
0.00630256
0.00800313
0.000333109
0.00767972
0.00434971
0.00784902
0.00354495
0.00876871
0.00630724
0.00363819
0.00139747
0.00158201
0.0058801
0.00826963
0.0107895
0.00357525
0.00643059
0.000793903
0.0013687
0.00269051
0.00457853
0.00515785
0.00410346
0.00566077
0.000922485
0.00494398
0.00763488
0.00450672
0.000482249
0.00538451
0.00378861
0.000603353
0.00352524
0.0117268
0.0018339
0.00470449
0.0120059
0.00157755
0.00419514
0.00369487
0.00350412
0.00200354
0.00507262
0.00068389
0.00515496
0.00161303
0.00536296
0.00165459
0.00227592
0.000572315
0.00350063
0.000954263
0.000309955
0.00999425
0.012013
0.00211129
0.00359996
0.000954165
0.00456086
0.00170967
0.00119034
0.00308753
0.00243636
0.0040274
0.0060192
0.00911002
5.76375e-05
0.00194268
0.00213663
0.00479047
0.00458385
0.00579636
0.00371034
0.000989633
0.0013888
0.00908342
0.00387667
0.00385725
0.0041172
0.000954539
0.000341542
0.00037923
0.00538457
0.00903476
0.00216883
0.0055918
0.00188625
0.00219911
0.00290488
0.000352309
0.00456812
0.00454216
0.00426241
0.00439401
0.00195977
0.00788521
0.00419672
0.00245771
0.0053853
0.00218002
0.0026507
0.00413337
0.00163629
0.00115092
0.00270521
0.00603846
0.00140863
0.0063862
0.00333248
0.00143904
0.00550692
0.00303327
0.000454789
0.00253084
0.000369243
5.82897e-05
0.00313283
0.00259865
0.0037268
0.000281104
0.00279264
0.00100124
0.00429722
0.00270638
0.00421742
0.00237017
0.00107496
0.00277127
0.000808256
0.00239128
0.000319634
0.00176862
0.00566571
0.00350996
0.00613811
0.00387896
0.00766656
0.00503012
0.00377688
0.00462575
0.00177091
0.00524645
0.00437481
0.00507396
0.00171954
0.000785339
0.000311074
0.00117566
0.00245551
0.00410076
0.00265809
0.00429293
0.00667064
0.00706763
0.0116629
4.54549e-05
0.00487792
0.000496135
0.00469716
0.000218405
0.000506404
0.000473554
0.000485553
5.96971e-05
0.000219916
0.00362506
0.000710948
0.00242023
0.00201078
0.00825809
0.00028396
0.0053718
0.000925242
0.0111593
0.00772104
0.00833327
0.00740085
0.00924613
0.00250309
0.00355838
0.00150142
0.00213373
0.00457282
0.000372844
0.00600405
0.000302707
0.000600661
0.000738346
0.000341965
0.00332966
0.00212938
0.00249833
0.00661063
0.00393339
0.00418994
0.00169083
0.00239058
0.00215588
0.0051284
0.000267777
8.24862e-05
0.000890605
0.00469313
0.000999817
0.00313653
0.0027644
0.000233984
0.000928812
0.002133
0.00546292
0.00506938
0.00367033
0.00179205
0.00105093
0.00270609
0.00621918
0.00517096
0.00175221
0.000481994
0.0033292
0.00129488
0.00363251
0.00457863
0.00179875
1.00825e-05
0.0026044
0.00352452
0.00621211
0.00232528
0.00257025
0.00169215
0.00288372
0.00135015
0.0050979
0.00114065
0.00165541
0.0035206
0.00317247
0.00217916
0.00353472
0.00261256
0.003763
0.00331332
0.00567103
0.00204218
0.00253401
0.00595
0.00481563
0.00573949
0.000637899
0.00580323
1.70887e-05
0.00149917
0.00323197
0.0034306
0.00215573
0.00212394
0.00557004
0.00488207
0.00248251
0.000797047
0.00452787
0.0028875
0.00397704
0.00315113
0.00308913
0.00413404
0.00110268
0.000771179
0.00379978
0.00289589
0.000251643
0.00161087
0.00284024
0.00072731
0.00213124
0.000757361
0.000925458
0.0017159
0.00680446
0.00188027
0.00140865
0.000255842
0.000188037
0.00492538
0.000236338
0.00268615
0.00176225
0.00421477
0.00309807
0.00732036
0.00338092
0.00377473
0.00415391
0.011396
0.00229494
0.00939731
0.00496157
0.00487341
0.000594995
0.000535099
0.0012103
0.0013544
0.00383139
0.00345947
0.000603757
5.82393e-05
0.00400768
2.55396e-05
0.00419927
0.000776783
0.000664628
0.00368389
0.00374817
0.00375402
0.00330007
0.00543354
0.0039891
0.00376304
0.000972887
0.00146825
0.00242657
0.00483889
0.00208121
0.0035618
0.00492645
0.00264422
0.00247888
0.000940548
0.00604075
0.000704397
0.00209091
0.0051421
0.00636497
0.00557368
0.00361177
0.00571877
0.00347787
0.000967058
0.00745955
0.000903743
0.00246944
0.00227026
0.00177498
0.0037376
0.00028377
0.00366405
0.00488914
0.000572635
0.00251978
0.00178769
0.0012426
0.000493732
0.00276226
0.00800642
0.00732348
6.46209e-05
0.00330696
0.00131108
0.00455673
0.00484526
0.00352491
0.000542733
0.00601912
0.00428475
0.00682338
0.00142606
0.0080644
0.000582427
3.7609e-05
0.00387438
0.000469274
0.00263412
0.00208757
0.00126757
0.000986524
0.000327957
0.0037807
0.00306714
0.00544888
0.00397809
0.00273636
0.00257054
0.000882016
0.00165651
0.00274231
0.00548584
0.0010769
0.00259376
0.00272298
0.00208013
0.00284506
0.00507798
0.00657656
0.00249607
0.00417109
0.00442375
0.00505359
0.00638659
0.000784199
0.00802927
0.00319782
0.000674375
0.0034218
0.00477098
0.000391521
0.000486373
0.00363093
0.00711286
0.00181573
0.00733964
0.00268974
0.000343249
0.000970457
0.0043503
0.00080946
0.0027994
0.000287969
0.00108845
0.00568202
0.00579934
0.000291644
0.000953034
0.00425197
0.000532613
0.00179764
0.00282015
0.00474161
0.000780283
0.000444083
0.00284943
0.00136637
0.0039103
0.00254053
0.00162828
0.000422632
0.00786682
0.0005238
0.00265201
0.00136071
0.00648222
0.00262747
0.00075952
0.00329065
0.00570719
0.00183246
0.00241495
0.00306588
0.000250873
5.6654e-05
0.000799403
0.00542578
0.00607825
0.00157268
0.00748073
0.00418462
0.00319015
0.00410702
0.00077343
0.0021547
0.000313245
0.000305597
0.00142276
0.00140017
0.00197089
0.00141796
0.000682328
0.00219942
0.00085116
0.00354185
0.00209232
0.00516533
0.00169102
0.000232122
0.00658638
1.65089e-05
0.00380186
0.000257767
0.00131846
0.00040946
0.000382087
0.000717574
0.00161102
0.000270764
0.000758356
0.00275296
0.000257049
0.000884602
0.00042596
0.0049098
0.000363268
0.000765632
0.000600442
0.00678072
0.00811171
0.000825167
0.00272159
0.0033407
0.00531427
0.00163379
0.00560427
0.00219252
0.00157842
0.00248972
0.00061356
0.00394477
0.00143407
0.00189803
0.00147692
0.00252757
0.00697028
0.00259858
0.00965307
0.00373629
0.00546265
0.00836305
0.00140365
0.0023932
0.00348601
0.000542754
0.00149846
0.00434727
0.000461197
0.00235672
0.00452412
0.00172383
0.000889049
0.00627681
0.00396875
5.20363e-05
0.000562455
0.00510928
9.99833e-05