/*--------------------------------*- C++ -*----------------------------------*\
| =========                 |                                                 |
| \\      /  F ield         | OpenFOAM: The Open Source CFD Toolbox           |
|  \\    /   O peration     | Version:  2212                                  |
|   \\  /    A nd           | Website:  www.openfoam.com                      |
|    \\/     M anipulation  |                                                 |
\*---------------------------------------------------------------------------*/
FoamFile
{
    version     2.0;
    format      ascii;
    arch        "LSB;label=32;scalar=64";
    class       volScalarField;
    location    "0";
    object      T;
}
// * * * * * * * * * * * * * * * * * * * * * * * * * * * * * * * * * * * * * //

dimensions      [0 0 0 1 0 0 0];

internalField   nonuniform List<scalar> 
3200
(
344.347
345.116
346.254
346.927
347.829
348.205
348.619
348.807
349.22
349.51
349.21
348.689
348.262
347.465
347.229
346.576
345.431
344.582
343.812
342.408
338.796
339.493
340.444
340.994
341.8
342.142
342.507
342.688
343.115
343.332
343.041
342.568
342.235
341.501
341.308
340.737
339.732
338.973
338.328
337.09
333.042
333.659
334.465
334.921
335.607
335.958
336.222
336.384
336.823
336.943
336.705
336.323
335.998
335.367
335.213
334.716
333.895
333.202
332.661
331.632
327.154
327.694
328.336
328.751
329.306
329.63
329.791
329.942
330.347
330.442
330.209
329.916
329.632
329.094
328.983
328.576
327.922
327.353
326.877
326.063
321.194
321.626
322.112
322.467
322.871
323.22
323.242
323.375
323.703
323.8
323.575
323.387
323.188
322.738
322.613
322.347
321.779
321.422
321
320.376
315.223
315.533
315.844
316.151
316.427
316.673
316.677
316.746
317.008
317.083
316.894
316.774
316.627
316.302
316.204
315.999
315.593
315.357
315.08
314.622
309.213
309.348
309.551
309.729
309.952
310.041
310.011
310.083
310.224
310.282
310.142
310.092
309.996
309.813
309.735
309.611
309.384
309.247
309.112
308.806
303.103
303.141
303.216
303.279
303.333
303.374
303.343
303.391
303.434
303.451
303.395
303.389
303.387
303.288
303.282
303.222
303.151
303.12
303.078
302.96
345.313
346.314
347.193
348.064
348.928
349.376
349.637
350.211
350.593
350.494
350.378
349.818
349.615
348.908
348.428
347.739
346.633
345.819
344.655
343.841
339.587
340.428
341.183
341.971
342.734
343.113
343.316
343.8
344.162
344.097
343.953
343.494
343.349
342.736
342.249
341.66
340.757
340.019
338.99
338.3
333.726
334.401
335.034
335.745
336.363
336.724
336.808
337.25
337.55
337.525
337.394
337.026
336.948
336.422
335.964
335.452
334.75
334.046
333.185
332.628
327.744
328.271
328.828
329.408
329.92
330.22
330.235
330.616
330.869
330.861
330.713
330.454
330.376
329.989
329.61
329.132
328.617
327.987
327.28
326.862
321.663
322.073
322.502
323.009
323.366
323.604
323.613
323.88
324.118
324.163
324
323.791
323.678
323.423
323.115
322.733
322.378
321.865
321.285
320.989
315.52
315.786
316.143
316.545
316.733
316.921
316.884
317.127
317.248
317.317
317.2
317.015
316.934
316.793
316.555
316.332
316.05
315.648
315.263
315.036
309.346
309.503
309.722
309.985
310.046
310.177
310.121
310.295
310.39
310.415
310.372
310.242
310.197
310.12
309.953
309.834
309.671
309.42
309.217
309.059
303.149
303.195
303.264
303.367
303.358
303.423
303.396
303.449
303.498
303.49
303.476
303.438
303.42
303.39
303.342
303.305
303.25
303.153
303.087
303.047
346.766
347.899
348.68
349.639
350.298
350.873
351.427
352.003
352.19
351.903
352.038
351.465
351.277
350.758
349.948
349.223
348.303
347.513
346.194
345.303
340.803
341.773
342.461
343.294
343.91
344.4
344.84
345.343
345.545
345.259
345.432
344.868
344.73
344.286
343.581
342.975
342.141
341.482
340.335
339.509
334.692
335.503
336.068
336.832
337.339
337.827
338.13
338.571
338.729
338.477
338.666
338.191
338.068
337.598
337.111
336.597
335.89
335.292
334.323
333.617
328.509
329.153
329.593
330.278
330.68
331.081
331.312
331.712
331.775
331.659
331.78
331.421
331.268
330.821
330.5
330.093
329.537
329.016
328.222
327.626
322.263
322.743
323.042
323.682
323.938
324.261
324.411
324.774
324.739
324.75
324.832
324.562
324.39
324.01
323.806
323.482
323.044
322.647
322.062
321.602
315.973
316.29
316.473
316.965
317.15
317.338
317.458
317.772
317.685
317.78
317.781
317.593
317.431
317.165
317.058
316.818
316.525
316.215
315.812
315.508
309.599
309.798
309.906
310.197
310.324
310.432
310.493
310.709
310.587
310.671
310.728
310.583
310.467
310.313
310.264
310.126
309.92
309.773
309.543
309.325
303.214
303.296
303.334
303.44
303.462
303.488
303.529
303.588
303.548
303.572
303.588
303.543
303.492
303.469
303.441
303.399
303.311
303.3
303.22
303.125
348.414
349.214
350.182
351.426
352.13
352.657
353.21
353.751
353.874
353.805
353.882
353.266
353.181
352.409
351.856
351.017
350.202
349.222
347.682
346.793
342.221
342.893
343.732
344.818
345.455
345.926
346.409
346.89
346.974
346.958
347.02
346.471
346.377
345.684
345.302
344.553
343.81
342.951
341.592
340.815
335.899
336.47
337.183
338.08
338.644
339.023
339.456
339.846
339.94
339.907
339.98
339.569
339.454
338.842
338.583
337.917
337.263
336.524
335.414
334.737
329.505
329.972
330.524
331.301
331.716
332.033
332.42
332.71
332.78
332.792
332.853
332.535
332.385
331.916
331.726
331.136
330.622
330.007
329.126
328.582
323.012
323.392
323.816
324.446
324.774
324.993
325.276
325.527
325.562
325.582
325.61
325.447
325.253
324.922
324.769
324.312
323.894
323.399
322.784
322.334
316.473
316.754
317.094
317.493
317.79
317.895
318.12
318.298
318.292
318.293
318.321
318.23
318.054
317.845
317.732
317.394
317.106
316.748
316.345
316.002
309.906
310.082
310.313
310.489
310.712
310.771
310.893
310.978
310.979
310.993
310.969
310.973
310.827
310.751
310.645
310.466
310.293
310.095
309.844
309.614
303.305
303.389
303.473
303.523
303.595
303.63
303.643
303.66
303.67
303.691
303.67
303.688
303.631
303.609
303.563
303.517
303.482
303.403
303.302
303.219
349.828
350.909
351.801
352.749
353.643
354.446
354.792
355.316
355.463
355.672
355.631
355.228
354.92
354.386
353.611
352.505
351.647
350.534
349.352
348.422
343.494
344.369
345.149
345.998
346.73
347.454
347.724
348.288
348.361
348.578
348.517
348.181
347.904
347.417
346.768
345.746
345.042
344.064
343.046
342.262
337.008
337.714
338.391
339.144
339.685
340.357
340.526
341.036
341.12
341.331
341.234
340.99
340.729
340.315
339.799
338.896
338.309
337.461
336.646
335.968
330.408
330.945
331.512
332.178
332.618
333.109
333.277
333.724
333.762
333.95
333.848
333.665
333.441
333.12
332.725
331.955
331.466
330.804
330.101
329.537
323.809
324.135
324.59
325.148
325.516
325.786
325.994
326.347
326.339
326.486
326.372
326.239
326.081
325.838
325.561
324.93
324.547
324.075
323.503
323.04
317.09
317.262
317.593
318.03
318.296
318.453
318.619
318.883
318.844
318.934
318.852
318.776
318.676
318.496
318.34
317.884
317.578
317.268
316.88
316.472
310.291
310.358
310.548
310.862
311.011
311.081
311.225
311.377
311.331
311.377
311.329
311.224
311.218
311.15
311.059
310.762
310.594
310.399
310.177
309.877
303.44
303.479
303.53
303.65
303.704
303.714
303.755
303.813
303.794
303.801
303.814
303.745
303.72
303.742
303.721
303.62
303.553
303.479
303.41
303.313
351.267
352.524
353.473
354.57
355.402
356.193
356.519
357.178
357.498
357.515
357.365
356.973
356.638
356.084
355.261
354.353
353.252
352.336
351.073
350.074
344.729
345.762
346.59
347.547
348.259
348.987
349.274
349.862
350.13
350.148
350.027
349.709
349.406
348.851
348.185
347.403
346.413
345.663
344.511
343.703
338.064
338.888
339.616
340.444
341.021
341.647
341.881
342.39
342.637
342.645
342.523
342.249
341.98
341.504
341.021
340.32
339.457
338.847
337.837
337.193
331.253
331.953
332.553
333.269
333.684
334.189
334.398
334.84
334.992
334.946
334.919
334.663
334.431
334.078
333.727
333.155
332.4
331.956
331.103
330.58
324.373
324.924
325.392
326.02
326.278
326.653
326.889
327.238
327.273
327.203
327.201
327.047
326.864
326.575
326.336
325.905
325.288
324.968
324.25
323.877
317.463
317.879
318.179
318.621
318.812
319.089
319.29
319.506
319.572
319.468
319.449
319.336
319.23
319.034
318.819
318.558
318.112
317.884
317.358
317.097
310.521
310.773
310.918
311.228
311.303
311.481
311.591
311.716
311.788
311.691
311.693
311.604
311.576
311.461
311.292
311.152
310.882
310.771
310.414
310.282
303.532
303.619
303.66
303.779
303.783
303.858
303.886
303.929
303.962
303.931
303.934
303.873
303.882
303.839
303.756
303.727
303.649
303.599
303.511
303.437
352.994
353.934
355.229
356.233
357.202
357.948
358.494
358.751
358.898
358.96
359.168
358.652
358.276
357.579
356.947
356.093
355.03
354.046
352.649
351.599
346.214
347.044
348.139
349.033
349.913
350.517
351.003
351.209
351.364
351.414
351.594
351.147
350.845
350.199
349.619
348.941
347.923
347.14
345.909
345.026
339.286
339.971
340.91
341.674
342.474
342.946
343.33
343.504
343.664
343.742
343.882
343.48
343.208
342.698
342.192
341.616
340.717
340.112
339.024
338.317
332.262
332.871
333.578
334.229
334.883
335.237
335.557
335.706
335.857
335.929
336.028
335.668
335.499
335.074
334.629
334.144
333.46
332.972
332.085
331.491
325.141
325.697
326.17
326.687
327.184
327.476
327.735
327.866
327.995
328.024
328.115
327.825
327.688
327.365
326.996
326.631
326.114
325.772
325.048
324.565
318.005
318.424
318.748
319.091
319.466
319.651
319.837
319.949
320.04
320.077
320.117
319.936
319.801
319.572
319.333
319.04
318.686
318.484
317.957
317.564
310.841
311.062
311.287
311.494
311.703
311.812
311.917
312.026
312.067
312.083
312.116
311.98
311.916
311.744
311.627
311.402
311.208
311.146
310.853
310.558
303.644
303.713
303.783
303.856
303.954
303.96
304
304.032
304.062
304.077
304.07
304.017
303.982
303.928
303.909
303.833
303.754
303.74
303.632
303.547
354.558
355.464
356.679
357.753
358.562
359.553
359.993
360.196
360.608
360.727
360.69
360.413
359.773
359.264
358.413
357.645
356.615
355.702
354.202
352.986
347.569
348.298
349.346
350.334
351.007
351.922
352.287
352.406
352.85
352.94
352.938
352.64
352.054
351.653
350.86
350.267
349.35
348.583
347.275
346.259
340.462
341.008
341.922
342.762
343.354
344.165
344.462
344.471
344.947
345.013
345.029
344.749
344.258
343.866
343.206
342.727
341.922
341.311
340.241
339.369
333.228
333.689
334.398
335.106
335.591
336.294
336.555
336.543
336.922
336.999
336.997
336.769
336.397
336.008
335.481
335.067
334.381
333.918
333.075
332.358
325.904
326.334
326.794
327.399
327.762
328.307
328.525
328.483
328.82
328.902
328.88
328.69
328.42
328.084
327.706
327.331
326.786
326.443
325.825
325.248
318.576
318.853
319.183
319.576
319.926
320.283
320.432
320.362
320.653
320.726
320.695
320.553
320.343
320.084
319.833
319.575
319.148
318.9
318.503
318.032
311.199
311.33
311.516
311.731
311.998
312.218
312.276
312.26
312.389
312.499
312.482
312.36
312.243
312.086
311.927
311.783
311.486
311.37
311.112
310.83
303.785
303.79
303.87
303.933
304.029
304.096
304.111
304.129
304.156
304.217
304.154
304.161
304.094
304.063
304.009
303.954
303.83
303.808
303.713
303.641
355.887
356.828
358.205
359.276
360.119
361.006
361.398
361.884
362.268
362.368
362.233
362.035
361.41
360.809
360.006
359.124
358.055
357.125
355.58
354.415
348.774
349.523
350.757
351.628
352.408
353.185
353.544
353.94
354.281
354.363
354.281
354.064
353.538
353.002
352.291
351.516
350.609
349.826
348.448
347.48
341.499
342.125
343.173
343.877
344.549
345.204
345.527
345.85
346.152
346.225
346.177
345.968
345.474
345.055
344.458
343.761
343.017
342.368
341.168
340.389
334.12
334.594
335.447
336.039
336.55
337.125
337.386
337.693
337.888
337.943
337.968
337.749
337.326
337.004
336.508
335.941
335.288
334.789
333.783
333.183
326.603
326.957
327.627
328.095
328.522
328.963
329.141
329.426
329.579
329.601
329.626
329.455
329.1
328.842
328.497
328.034
327.496
327.13
326.351
325.926
319.041
319.282
319.778
320.122
320.392
320.713
320.824
321.095
321.179
321.173
321.183
321.111
320.829
320.651
320.374
320.046
319.685
319.466
318.85
318.592
311.442
311.566
311.875
312.106
312.221
312.452
312.477
312.708
312.755
312.707
312.75
312.696
312.527
312.444
312.262
312.025
311.837
311.71
311.293
311.204
303.841
303.855
303.967
304.062
304.106
304.187
304.164
304.265
304.326
304.259
304.26
304.263
304.211
304.167
304.116
304.025
303.972
303.938
303.776
303.755
357.137
358.188
359.609
360.702
361.605
362.407
363.141
363.502
363.784
364.099
363.881
363.443
362.841
362.227
361.636
360.557
359.484
358.307
356.851
355.588
349.842
350.749
351.932
352.906
353.689
354.351
354.996
355.394
355.552
355.868
355.696
355.298
354.729
354.19
353.704
352.754
351.84
350.836
349.556
348.482
342.383
343.192
344.157
344.945
345.607
346.213
346.749
347.125
347.209
347.485
347.351
347.01
346.5
345.998
345.643
344.822
344.055
343.224
342.133
341.251
334.809
335.485
336.267
336.831
337.41
337.961
338.404
338.685
338.782
339.019
338.853
338.593
338.165
337.735
337.453
336.818
336.141
335.492
334.609
333.898
327.152
327.713
328.254
328.664
329.188
329.605
329.981
330.207
330.264
330.467
330.297
330.096
329.736
329.412
329.182
328.756
328.176
327.706
327.012
326.474
319.464
319.884
320.195
320.499
320.877
321.182
321.472
321.659
321.711
321.803
321.745
321.52
321.277
321.016
320.866
320.586
320.177
319.852
319.344
318.971
311.731
311.979
312.126
312.324
312.535
312.73
312.926
313.04
313.056
313.097
313.102
312.895
312.831
312.639
312.577
312.411
312.119
311.947
311.605
311.416
303.948
304.011
304.061
304.131
304.183
304.282
304.33
304.366
304.371
304.402
304.417
304.321
304.3
304.225
304.229
304.146
304.063
303.998
303.886
303.835
358.251
359.366
360.659
361.947
362.836
363.826
364.519
365.002
365.208
365.584
365.192
364.814
364.298
363.615
362.955
361.935
360.806
359.694
358.139
356.91
350.816
351.746
352.838
353.986
354.799
355.652
356.203
356.648
356.834
357.122
356.824
356.515
356.006
355.434
354.858
353.94
353.052
352.047
350.653
349.624
343.208
343.987
344.916
345.856
346.618
347.323
347.746
348.136
348.287
348.518
348.31
348.024
347.569
347.097
346.617
345.826
345.116
344.249
343.039
342.208
335.53
336.125
336.935
337.642
338.279
338.788
339.178
339.536
339.655
339.815
339.656
339.442
339.023
338.646
338.297
337.615
337.057
336.393
335.377
334.684
327.775
328.161
328.834
329.381
329.851
330.197
330.542
330.85
330.933
331.067
330.92
330.796
330.435
330.098
329.888
329.347
328.941
328.429
327.608
327.098
319.874
320.149
320.687
321.038
321.371
321.618
321.888
322.106
322.138
322.276
322.141
322.068
321.791
321.532
321.416
320.987
320.755
320.406
319.811
319.43
311.943
312.128
312.479
312.632
312.857
312.997
313.166
313.318
313.314
313.388
313.34
313.246
313.132
312.943
312.876
312.622
312.492
312.303
311.925
311.661
304.003
304.073
304.209
304.248
304.313
304.363
304.4
304.471
304.467
304.49
304.487
304.428
304.418
304.332
304.325
304.23
304.209
304.128
303.988
303.909
359.229
360.499
361.65
363.117
364.116
365.011
365.734
366.231
366.59
366.636
366.705
365.974
365.544
365.137
364.253
363.254
362.065
360.831
359.55
358.11
351.691
352.736
353.714
354.978
355.851
356.634
357.246
357.7
358.002
358.068
358.107
357.482
357.091
356.735
355.968
355.096
354.089
353.015
351.885
350.68
343.971
344.804
345.603
346.748
347.464
348.116
348.641
349.056
349.295
349.348
349.364
348.909
348.526
348.203
347.582
346.795
346.002
345.055
344.082
343.104
336.098
336.735
337.459
338.413
338.958
339.491
339.934
340.289
340.457
340.561
340.534
340.185
339.844
339.567
339.109
338.388
337.827
336.987
336.159
335.414
328.145
328.62
329.219
329.937
330.377
330.823
331.102
331.394
331.562
331.628
331.614
331.336
331.053
330.813
330.516
329.918
329.525
328.859
328.229
327.647
320.183
320.47
320.938
321.413
321.726
322.099
322.259
322.47
322.601
322.622
322.644
322.418
322.229
322.005
321.843
321.403
321.181
320.732
320.2
319.813
312.145
312.284
312.612
312.861
313.052
313.263
313.404
313.505
313.571
313.6
313.602
313.476
313.405
313.201
313.14
312.862
312.781
312.498
312.148
311.913
304.077
304.114
304.235
304.313
304.379
304.446
304.493
304.538
304.553
304.559
304.564
304.505
304.488
304.423
304.4
304.339
304.282
304.194
304.078
304.001
360.204
361.577
362.631
364.358
365.252
366.104
366.797
367.394
367.572
367.749
367.907
367.2
366.82
366.297
365.393
364.319
363.209
361.888
360.653
359.179
352.506
353.62
354.516
356.075
356.84
357.593
358.178
358.719
358.829
359.024
359.127
358.534
358.192
357.78
356.953
356.04
355.087
353.944
352.86
351.661
344.667
345.572
346.333
347.672
348.306
348.941
349.391
349.866
349.992
350.181
350.225
349.775
349.421
349.088
348.403
347.631
346.841
345.88
344.932
343.968
336.714
337.383
338.036
339.141
339.672
340.192
340.512
340.898
341.015
341.206
341.238
340.931
340.569
340.31
339.698
339.087
338.48
337.666
336.844
336.147
328.69
329.128
329.709
330.493
330.989
331.368
331.611
331.879
331.981
332.157
332.211
331.971
331.604
331.451
330.933
330.429
330.041
329.392
328.744
328.226
320.628
320.826
321.291
321.792
322.217
322.471
322.632
322.825
322.863
323.026
323.086
322.909
322.622
322.477
322.126
321.774
321.534
321.042
320.603
320.233
312.447
312.5
312.806
313.116
313.384
313.506
313.608
313.716
313.747
313.845
313.924
313.806
313.581
313.509
313.323
313.117
312.949
312.63
312.398
312.196
304.171
304.182
304.293
304.392
304.488
304.547
304.557
304.613
304.609
304.644
304.674
304.627
304.56
304.538
304.478
304.386
304.371
304.247
304.138
304.087
361.366
362.466
363.747
365.297
366.275
367.01
367.692
368.4
368.501
369.035
368.849
368.541
368.025
367.41
366.341
365.381
364.371
362.896
361.688
360.242
353.514
354.442
355.522
356.934
357.744
358.365
358.979
359.618
359.7
360.134
359.989
359.699
359.297
358.724
357.794
356.977
356.122
354.843
353.746
352.534
345.504
346.271
347.149
348.406
349.079
349.547
350.132
350.712
350.746
351.066
350.983
350.737
350.365
349.901
349.114
348.448
347.749
346.656
345.668
344.682
337.386
338.01
338.671
339.754
340.269
340.658
341.11
341.657
341.705
341.893
341.852
341.636
341.337
341.024
340.32
339.81
339.219
338.375
337.543
336.686
329.214
329.695
330.098
330.981
331.434
331.697
332.027
332.485
332.551
332.629
332.673
332.49
332.241
332.021
331.449
331.086
330.571
329.978
329.259
328.63
320.943
321.251
321.557
322.142
322.52
322.69
322.949
323.251
323.323
323.368
323.422
323.297
323.079
322.968
322.52
322.251
321.902
321.484
320.915
320.513
312.586
312.783
312.946
313.279
313.534
313.662
313.855
313.999
314.024
314.062
314.133
314.03
313.913
313.838
313.566
313.388
313.174
312.887
312.584
312.341
304.214
304.28
304.336
304.445
304.549
304.572
304.652
304.69
304.712
304.731
304.749
304.715
304.679
304.654
304.547
304.488
304.428
304.333
304.203
304.125
362.134
363.314
364.75
366.032
367.135
368.011
368.71
369.248
369.547
369.961
369.666
369.298
368.961
368.446
367.456
366.332
364.938
363.567
362.283
361.051
354.175
355.129
356.389
357.547
358.484
359.254
359.828
360.351
360.56
360.916
360.735
360.375
360.054
359.632
358.785
357.767
356.537
355.358
354.271
353.219
346.093
346.797
347.85
348.949
349.653
350.348
350.817
351.297
351.443
351.718
351.643
351.258
350.992
350.675
349.971
349.084
348.005
347.06
346.127
345.268
337.884
338.409
339.265
340.186
340.753
341.338
341.722
342.1
342.199
342.428
342.449
342.121
341.822
341.602
341
340.312
339.404
338.654
337.897
337.267
329.547
329.952
330.619
331.341
331.786
332.261
332.54
332.825
332.902
333.039
333.15
332.88
332.604
332.447
331.935
331.414
330.751
330.147
329.577
329.084
321.157
321.437
321.913
322.412
322.749
323.104
323.291
323.481
323.532
323.624
323.729
323.537
323.34
323.233
322.804
322.474
322.049
321.564
321.185
320.827
312.721
312.904
313.159
313.459
313.664
313.867
313.998
314.097
314.143
314.196
314.254
314.159
314.04
313.96
313.678
313.518
313.286
312.993
312.741
312.534
304.266
304.333
304.405
304.502
304.584
304.642
304.69
304.72
304.741
304.764
304.788
304.747
304.72
304.689
304.582
304.536
304.469
304.358
304.254
304.195
362.748
364.025
365.414
366.941
367.961
369.046
369.568
370.18
370.527
370.66
370.644
370.337
369.702
369.13
368.468
367.306
365.659
364.319
362.964
361.789
354.683
355.772
356.979
358.32
359.237
360.166
360.6
361.142
361.435
361.525
361.589
361.289
360.724
360.194
359.668
358.636
357.186
356.026
354.829
353.922
346.512
347.388
348.383
349.61
350.359
351.199
351.509
351.985
352.196
352.281
352.363
352.082
351.602
351.134
350.666
349.815
348.56
347.603
346.572
345.884
338.204
338.888
339.669
340.691
341.327
342.053
342.271
342.691
342.808
342.925
343.042
342.773
342.369
341.995
341.555
340.868
339.823
339.077
338.253
337.731
329.776
330.309
330.909
331.743
332.227
332.783
332.953
333.248
333.36
333.457
333.567
333.386
332.977
332.745
332.369
331.861
331.006
330.507
329.845
329.46
321.324
321.681
322.104
322.766
323.098
323.514
323.629
323.768
323.849
323.955
324.016
323.965
323.564
323.432
323.13
322.789
322.172
321.865
321.373
321.119
312.864
313.056
313.289
313.661
313.885
314.171
314.224
314.281
314.327
314.423
314.426
314.42
314.155
314.094
313.902
313.729
313.296
313.126
312.864
312.707
304.323
304.382
304.478
304.577
304.632
304.776
304.788
304.782
304.813
304.841
304.827
304.824
304.758
304.729
304.657
304.629
304.431
304.406
304.324
304.259
363.337
364.259
365.981
367.419
368.606
369.768
370.206
370.831
371.102
371.391
371.31
371.255
370.695
369.881
369.148
367.975
366.508
365.165
363.511
362.295
355.207
355.962
357.423
358.715
359.74
360.781
361.116
361.707
361.924
362.162
362.123
362.068
361.601
360.848
360.249
359.231
357.96
356.755
355.306
354.315
346.933
347.517
348.741
349.885
350.753
351.638
351.926
352.426
352.592
352.799
352.765
352.703
352.373
351.69
351.163
350.293
349.245
348.202
346.957
346.2
338.556
339.001
339.972
340.948
341.675
342.393
342.611
343.034
343.169
343.276
343.31
343.226
343
342.409
341.971
341.21
340.414
339.554
338.542
337.97
330.125
330.451
331.156
331.878
332.486
333.047
333.192
333.562
333.635
333.707
333.759
333.688
333.527
333.087
332.719
332.143
331.484
330.848
330.048
329.632
321.576
321.82
322.289
322.817
323.247
323.666
323.726
323.983
324.054
324.098
324.122
324.125
324.025
323.713
323.415
323.025
322.496
322.058
321.474
321.227
312.963
313.128
313.407
313.745
313.957
314.216
314.235
314.391
314.452
314.47
314.499
314.532
314.477
314.264
314.087
313.855
313.513
313.267
312.879
312.776
304.342
304.398
304.493
304.633
304.68
304.769
304.777
304.82
304.837
304.863
304.863
304.869
304.854
304.798
304.726
304.641
304.532
304.447
304.329
304.298
363.646
364.979
366.524
367.902
369.105
370.216
370.904
371.608
371.828
372.011
371.653
371.61
371.182
370.265
369.5
368.595
367.11
365.632
364.105
362.728
355.489
356.567
357.93
359.163
360.229
361.17
361.799
362.361
362.534
362.731
362.401
362.392
362.016
361.192
360.558
359.733
358.427
357.158
355.801
354.673
347.188
348.044
349.177
350.268
351.202
351.966
352.465
352.948
353.169
353.248
353.005
353.003
352.707
352
351.479
350.688
349.64
348.562
347.362
346.516
338.784
339.377
340.34
341.244
342.007
342.69
343.002
343.42
343.648
343.648
343.491
343.482
343.288
342.668
342.285
341.566
340.782
339.859
338.878
338.211
330.263
330.704
331.453
332.138
332.735
333.256
333.485
333.803
334.016
333.996
333.909
333.898
333.776
333.294
332.989
332.396
331.821
331.084
330.279
329.815
321.713
321.982
322.532
322.95
323.395
323.768
323.968
324.184
324.373
324.336
324.286
324.262
324.158
323.864
323.643
323.165
322.754
322.25
321.616
321.356
313.086
313.191
313.598
313.781
314.064
314.28
314.408
314.515
314.655
314.59
314.62
314.566
314.504
314.371
314.238
313.894
313.644
313.395
313.002
312.85
304.393
304.421
304.552
304.616
304.725
304.795
304.837
304.858
304.928
304.875
304.91
304.87
304.868
304.818
304.781
304.662
304.56
304.491
304.356
304.307
364.041
365.43
366.838
368.268
369.415
370.519
371.259
371.854
372.179
372.241
372.152
371.995
371.487
370.636
370.076
368.942
367.398
366.059
364.442
363.064
355.783
356.989
358.208
359.481
360.467
361.399
362.076
362.594
362.904
362.912
362.819
362.743
362.221
361.498
361.013
360.083
358.72
357.504
356.104
354.979
347.403
348.393
349.502
350.564
351.383
352.155
352.766
353.152
353.441
353.392
353.401
353.323
352.869
352.255
351.818
351.024
349.878
348.787
347.65
346.754
338.885
339.706
340.634
341.5
342.212
342.788
343.319
343.607
343.862
343.806
343.811
343.739
343.403
342.953
342.512
341.876
340.947
340.038
339.065
338.426
330.352
330.96
331.705
332.372
332.926
333.375
333.805
333.998
334.211
334.151
334.174
334.074
333.834
333.548
333.112
332.671
331.917
331.201
330.482
329.996
321.724
322.158
322.723
323.173
323.571
323.925
324.224
324.341
324.491
324.413
324.479
324.373
324.207
324.013
323.694
323.388
322.811
322.333
321.842
321.486
313.078
313.342
313.68
313.939
314.179
314.383
314.57
314.644
314.71
314.655
314.713
314.655
314.517
314.446
314.256
314.063
313.722
313.424
313.118
312.882
304.4
304.468
304.586
304.667
304.756
304.832
304.89
304.928
304.938
304.919
304.915
304.903
304.884
304.87
304.784
304.727
304.598
304.502
304.394
304.331
364.184
365.592
367.079
368.495
369.762
370.745
371.693
372.248
372.344
372.38
372.131
372.371
371.652
370.964
370.158
369.097
367.928
366.504
364.906
363.377
355.916
357.103
358.411
359.682
360.73
361.653
362.425
362.942
362.98
362.997
362.796
363
362.399
361.797
361.119
360.16
359.188
357.853
356.529
355.177
347.493
348.502
349.609
350.701
351.547
352.355
353.047
353.5
353.496
353.49
353.331
353.524
352.997
352.459
351.967
351.126
350.27
349.065
348.069
346.845
338.981
339.858
340.726
341.639
342.244
342.926
343.555
343.946
343.877
343.913
343.781
343.893
343.503
343.017
342.659
342.001
341.221
340.225
339.473
338.423
330.381
331.096
331.777
332.453
332.908
333.395
333.981
334.307
334.217
334.242
334.144
334.225
333.917
333.537
333.267
332.785
332.081
331.366
330.808
329.941
321.724
322.244
322.779
323.204
323.536
323.873
324.346
324.557
324.505
324.521
324.419
324.488
324.282
323.987
323.833
323.499
322.886
322.451
322.075
321.461
313.081
313.349
313.723
313.986
314.146
314.358
314.627
314.805
314.729
314.773
314.681
314.723
314.581
314.441
314.332
314.159
313.734
313.504
313.27
312.915
304.394
304.476
304.613
304.714
304.732
304.82
304.894
304.955
304.959
304.984
304.913
304.948
304.89
304.838
304.835
304.739
304.589
304.545
304.453
304.343
)
;

boundaryField
{
    hotSide
    {
        type            fixedGradient;
        gradient        nonuniform List<scalar> 
400
(
428.956
446.291
463.376
480.134
496.49
512.367
527.687
542.377
556.363
569.575
581.945
593.409
603.907
613.383
621.789
629.079
635.216
640.166
643.904
646.413
439.228
457.084
474.688
491.962
508.826
525.201
541.009
556.172
570.616
584.267
597.055
608.914
619.782
629.602
638.323
645.897
652.286
657.456
661.379
664.038
448.303
466.634
484.712
502.456
519.785
536.618
552.874
568.473
583.338
597.393
610.568
622.793
634.005
644.145
653.159
661
667.627
673.004
677.104
679.907
456.135
474.892
493.395
511.563
529.31
546.555
563.215
579.208
594.455
608.878
622.404
634.963
646.489
656.922
666.206
674.293
681.14
686.712
690.978
693.919
462.689
481.82
500.697
519.237
537.354
554.963
571.98
588.322
603.908
618.658
632.498
645.355
657.163
667.859
677.388
685.698
692.746
698.495
702.916
705.986
467.943
487.392
506.589
525.447
543.88
561.803
579.128
595.771
611.65
626.685
640.797
653.915
665.97
676.897
686.641
695.149
702.377
708.286
712.847
716.036
471.881
491.591
511.05
530.171
548.866
567.048
584.629
601.524
617.648
632.921
647.263
660.601
672.865
683.99
693.919
702.597
709.981
716.031
720.716
724.012
474.496
494.409
514.071
533.397
552.297
570.682
588.465
605.559
621.879
637.342
651.868
665.384
677.818
689.105
699.185
708.006
715.52
721.689
726.481
729.872
475.791
495.845
515.651
535.121
554.167
572.699
590.629
607.868
624.331
639.934
654.598
668.248
680.811
692.222
702.42
711.352
718.97
725.235
730.116
733.586
475.774
495.906
515.794
535.349
554.481
573.101
591.12
608.449
625.002
640.695
655.449
669.186
681.836
693.331
703.612
712.623
720.318
726.656
731.604
735.139
474.457
494.607
514.514
534.092
553.25
571.898
589.948
607.31
623.899
639.631
654.425
668.204
680.897
692.438
702.764
711.822
719.563
725.949
730.945
734.527
471.861
491.964
511.829
531.368
550.491
569.108
587.13
604.47
621.04
636.758
651.542
665.316
678.009
689.553
699.888
708.959
716.718
723.126
728.148
731.761
468.008
488.003
507.763
527.201
546.228
564.755
582.692
599.952
616.449
632.1
646.825
660.547
673.195
684.702
695.008
704.058
711.806
718.209
723.236
726.862
462.927
482.752
502.346
521.622
540.493
558.869
576.663
593.788
610.158
625.69
640.306
653.929
666.488
677.918
688.158
697.154
704.859
711.233
716.243
719.864
456.651
476.244
495.612
514.667
533.322
551.49
569.084
586.018
602.207
617.57
632.028
645.506
657.933
669.246
679.383
688.292
695.925
702.243
707.214
710.813
449.216
468.519
487.601
506.376
524.758
542.662
560
576.689
592.646
607.789
622.041
635.329
647.583
658.739
668.738
677.526
685.059
691.297
696.208
699.767
440.664
459.62
478.36
496.798
514.852
532.436
549.466
565.858
581.532
596.407
610.408
623.462
635.502
646.463
656.288
664.926
672.33
678.463
683.293
686.796
431.042
449.597
467.94
485.988
503.66
520.872
537.542
553.588
568.93
583.492
597.198
609.977
621.763
632.493
642.112
650.569
657.818
663.823
668.553
671.984
420.403
438.505
456.399
474.006
491.246
508.036
524.298
539.951
554.917
569.121
582.49
594.955
606.451
616.917
626.298
634.545
641.615
647.471
652.082
655.426
408.807
426.406
443.804
460.922
477.681
494.005
509.813
525.028
539.576
553.382
566.376
578.49
589.661
599.831
608.946
616.958
623.825
629.511
633.987
637.231
)
;
    }
    coldSide
    {
        type            mixed;
        refValue        uniform 300;
        refGradient     uniform 0;
        valueFraction   uniform 0.991591;
        source          uniform 0;
        value           nonuniform List<scalar> 
400
(
300.026
300.026
300.027
300.028
300.029
300.03
300.031
300.032
300.032
300.033
300.034
300.034
300.035
300.035
300.036
300.036
300.037
300.037
300.037
300.037
300.026
300.027
300.028
300.029
300.029
300.03
300.031
300.032
300.032
300.034
300.034
300.035
300.035
300.036
300.036
300.037
300.037