/*--------------------------------*- C++ -*----------------------------------*\
| =========                 |                                                 |
| \\      /  F ield         | OpenFOAM: The Open Source CFD Toolbox           |
|  \\    /   O peration     | Version:  2212                                  |
|   \\  /    A nd           | Website:  www.openfoam.com                      |
|    \\/     M anipulation  |                                                 |
\*---------------------------------------------------------------------------*/
FoamFile
{
    version     2.0;
    format      ascii;
    arch        "LSB;label=32;scalar=64";
    class       volScalarField;
    location    "0";
    object      T;
}
// * * * * * * * * * * * * * * * * * * * * * * * * * * * * * * * * * * * * * //

dimensions      [0 0 0 1 0 0 0];

internalField   nonuniform List<scalar> 
3200
(
330.634
331.137
331.539
331.981
332.367
332.624
332.87
332.97
332.899
332.823
332.329
332.066
331.718
331.519
331.306
330.681
330.058
329.298
328.753
328.032
327.049
327.439
327.826
328.159
328.559
328.79
329.016
329.098
329.021
328.985
328.536
328.306
327.975
327.816
327.641
327.031
326.528
325.833
325.307
324.732
323.22
323.54
323.89
324.119
324.513
324.696
324.96
325.011
324.937
324.874
324.501
324.344
323.998
323.878
323.745
323.213
322.781
322.156
321.698
321.231
319.285
319.452
319.798
319.94
320.301
320.416
320.678
320.735
320.627
320.553
320.287
320.161
319.83
319.745
319.609
319.242
318.867
318.32
317.945
317.565
315.16
315.246
315.555
315.668
315.902
316.04
316.242
316.252
316.183
316.094
315.918
315.848
315.566
315.526
315.33
315.088
314.831
314.336
314.081
313.753
310.923
310.949
311.209
311.302
311.456
311.562
311.668
311.694
311.637
311.54
311.443
311.41
311.178
311.163
311.004
310.841
310.648
310.301
310.13
309.876
306.567
306.622
306.799
306.808
306.93
306.981
307.048
307.039
307.037
306.932
306.872
306.946
306.729
306.696
306.653
306.52
306.385
306.206
306.102
305.977
302.183
302.208
302.28
302.277
302.323
302.333
302.37
302.37
302.347
302.32
302.295
302.347
302.279
302.226
302.234
302.189
302.144
302.085
302.055
302.008
331.632
331.843
332.381
332.804
333.238
333.582
333.766
333.952
333.709
333.778
333.611
333.261
332.753
332.675
332.169
331.557
330.98
330.286
329.549
329.03
327.85
328.068
328.485
328.891
329.302
329.618
329.731
329.935
329.704
329.742
329.579
329.269
328.815
328.797
328.298
327.786
327.243
326.661
325.995
325.519
323.893
324.047
324.375
324.762
325.133
325.395
325.483
325.666
325.513
325.493
325.35
325.108
324.699
324.657
324.229
323.879
323.323
322.846
322.267
321.838
319.809
319.873
320.137
320.496
320.761
321.019
321.061
321.172
321.111
321.081
320.976
320.756
320.421
320.377
320.001
319.769
319.279
318.881
318.401
318.067
315.561
315.604
315.825
316.082
316.245
316.509
316.517
316.542
316.565
316.515
316.466
316.331
315.997
315.959
315.686
315.503
315.082
314.798
314.432
314.156
311.186
311.212
311.401
311.539
311.62
311.902
311.87
311.862
311.907
311.896
311.895
311.744
311.488
311.463
311.251
311.142
310.801
310.651
310.374
310.162
306.741
306.758
306.893
306.941
306.994
307.183
307.162
307.121
307.194
307.195
307.202
307.064
306.901
306.894
306.797
306.705
306.504
306.434
306.255
306.14
302.266
302.277
302.311
302.343
302.347
302.43
302.409
302.383
302.412
302.431
302.422
302.353
302.317
302.291
302.289
302.272
302.193
302.134
302.074
302.069
332.665
333.15
333.594
334.09
334.51
334.93
335.212
335.332
335.08
335.115
335.075
334.652
334.214
334.066
333.369
332.928
332.201
331.523
330.812
330.149
328.775
329.184
329.589
329.968
330.308
330.738
330.97
331.063
330.852
330.892
330.869
330.454
330.066
329.938
329.326
328.941
328.289
327.769
327.078
326.471
324.714
325.029
325.375
325.636
325.929
326.347
326.522
326.57
326.378
326.453
326.419
326.107
325.695
325.595
325.118
324.754
324.218
323.782
323.142
322.648
320.492
320.714
320.957
321.177
321.395
321.785
321.888
321.944
321.8
321.874
321.851
321.556
321.199
321.126
320.714
320.43
320.019
319.693
319.093
318.711
316.102
316.249
316.422
316.613
316.733
317.05
317.166
317.222
317.144
317.155
317.123
316.908
316.609
316.543
316.205
315.967
315.73
315.443
314.935
314.702
311.578
311.676
311.81
311.929
311.984
312.253
312.341
312.382
312.355
312.363
312.318
312.144
311.919
311.894
311.647
311.416
311.303
311.135
310.701
310.536
307
307.019
307.13
307.2
307.216
307.398
307.428
307.48
307.469
307.488
307.433
307.323
307.162
307.163
307.016
306.872
306.842
306.696
306.43
306.328
302.34
302.362
302.396
302.404
302.433
302.488
302.507
302.516
302.499
302.538
302.505
302.47
302.382
302.403
302.364
302.278
302.307
302.248
302.185
302.128
333.975
334.639
335.307
335.675
335.983
336.461
336.615
336.808
336.64
336.747
336.35
336.228
335.92
335.51
334.917
334.326
333.826
333.063
332.094
331.488
329.884
330.489
331.069
331.398
331.622
332.044
332.187
332.378
332.201
332.332
331.991
331.895
331.541
331.2
330.68
330.189
329.74
329.028
328.213
327.649
325.601
326.099
326.602
326.871
327.074
327.423
327.548
327.75
327.567
327.714
327.444
327.374
326.979
326.715
326.244
325.845
325.426
324.815
324.136
323.6
321.141
321.552
321.972
322.21
322.407
322.654
322.718
322.962
322.793
322.93
322.67
322.676
322.258
322.064
321.683
321.313
321.04
320.46
319.936
319.461
316.561
316.872
317.23
317.403
317.594
317.739
317.735
318.011
317.854
317.949
317.809
317.844
317.443
317.239
317.012
316.658
316.493
316.01
315.605
315.211
311.899
312.107
312.374
312.49
312.614
312.732
312.717
312.942
312.829
312.902
312.811
312.872
312.542
312.379
312.218
311.926
311.869
311.505
311.212
310.918
307.175
307.296
307.461
307.555
307.617
307.693
307.637
307.795
307.708
307.781
307.76
307.792
307.566
307.472
307.372
307.178
307.187
306.96
306.778
306.572
302.384
302.456
302.505
302.548
302.533
302.613
302.562
302.612
302.591
302.593
302.599
302.617
302.534
302.513
302.48
302.402
302.432
302.345
302.287
302.181
335.513
335.988
336.679
337.285
337.452
337.728
338.187
338.417
338.25
338.335
338.059
337.927
337.441
337.016
336.488
336.001
335.391
334.43
333.551
332.972
331.248
331.651
332.278
332.754
332.903
333.176
333.539
333.782
333.628
333.682
333.5
333.364
332.841
332.465
332.009
331.611
331.073
330.213
329.466
328.976
326.738
327.131
327.663
328.013
328.157
328.413
328.697
328.925
328.789
328.833
328.696
328.576
328.122
327.766
327.38
327.055
326.535
325.835
325.205
324.771
322.071
322.417
322.832
323.118
323.28
323.475
323.708
323.887
323.772
323.832
323.705
323.63
323.232
322.875
322.644
322.354
321.827
321.304
320.767
320.447
317.295
317.53
317.913
318.086
318.268
318.429
318.555
318.703
318.634
318.673
318.596
318.524
318.223
317.875
317.718
317.516
317.046
316.623
316.245
316
312.435
312.585
312.879
312.998
313.158
313.286
313.315
313.445
313.397
313.412
313.338
313.321
313.106
312.802
312.657
312.558
312.2
311.945
311.63
311.518
307.499
307.594
307.743
307.845
307.93
308.009
308.017
308.096
308.079
308.071
307.98
308.03
307.888
307.661
307.61
307.583
307.343
307.187
306.993
306.981
302.511
302.57
302.6
302.62
302.66
302.685
302.708
302.73
302.718
302.703
302.676
302.693
302.651
302.555
302.557
302.548
302.472
302.432
302.355
302.342
336.925
337.625
338.273
338.75
339.063
339.604
339.858
340.049
339.933
339.755
339.753
339.526
338.892
338.646
338.069
337.689
336.823
335.844
335.027
334.083
332.545
333.119
333.606
334.053
334.315
334.786
335.021
335.198
335.084
334.941
334.95
334.744
334.168
333.942
333.447
333.154
332.332
331.466
330.738
329.933
327.87
328.322
328.725
329.146
329.4
329.799
329.95
330.113
330.006
329.905
329.906
329.726
329.249
328.973
328.616
328.365
327.642
326.898
326.314
325.612
323.047
323.386
323.712
324.049
324.265
324.602
324.714
324.882
324.747
324.674
324.66
324.504
324.134
323.923
323.634
323.413
322.791
322.18
321.735
321.139
318.054
318.326
318.617
318.818
319.027
319.293
319.353
319.501
319.367
319.337
319.289
319.135
318.881
318.713
318.503
318.353
317.831
317.398
317.008
316.553
313.012
313.159
313.383
313.505
313.667
313.813
313.894
313.981
313.908
313.911
313.87
313.697
313.543
313.456
313.271
313.157
312.839
312.531
312.21
311.887
307.898
307.95
308.078
308.176
308.243
308.305
308.352
308.399
308.396
308.41
308.327
308.22
308.14
308.091
307.977
307.907
307.757
307.576
307.375
307.159
302.654
302.662
302.713
302.756
302.789
302.776
302.803
302.81
302.817
302.811
302.786
302.77
302.746
302.72
302.67
302.651
302.62
302.545
302.469
302.407
338.19
339.165
339.607
340.366
340.565
341.08
341.384
341.671
341.506
341.447
341.252
341.193
340.525
340.366
339.583
338.847
338.022
337.168
336.378
335.642
333.559
334.404
334.765
335.47
335.592
336.138
336.327
336.641
336.44
336.38
336.232
336.144
335.621
335.468
334.757
334.122
333.39
332.631
331.915
331.293
328.714
329.466
329.708
330.33
330.436
330.909
331.022
331.352
331.146
331.091
330.969
330.879
330.45
330.371
329.772
329.181
328.572
327.887
327.302
326.779
323.659
324.301
324.508
325.032
325.113
325.547
325.555
325.886
325.701
325.617
325.539
325.502
325.111
325.034
324.558
324.062
323.624
322.982
322.546
322.101
318.549
319.054
319.206
319.598
319.63
320.003
319.992
320.263
320.1
320.051
320.012
319.987
319.661
319.605
319.177
318.823
318.508
317.933
317.641
317.303
313.353
313.693
313.778
314.062
314.106
314.369
314.33
314.518
314.387
314.384
314.364
314.356
314.125
314.084
313.719
313.486
313.332
312.871
312.661
312.392
308.046
308.255
308.305
308.482
308.507
308.643
308.644
308.755
308.627
308.663
308.628
308.642
308.513
308.471
308.261
308.117
308.027
307.752
307.633
307.461
302.701
302.778
302.788
302.836
302.864
302.895
302.878
302.935
302.901
302.915
302.888
302.909
302.843
302.863
302.774
302.735
302.711
302.611
302.58
302.511
339.588
340.449
341.024
341.436
341.897
342.501
342.708
342.8
342.826
342.802
342.742
342.485
341.952
341.816
341.137
340.277
339.409
338.779
337.866
336.939
334.82
335.518
336.004
336.354
336.808
337.35
337.516
337.591
337.616
337.556
337.475
337.294
336.805
336.667
336.158
335.381
334.603
333.984
333.235
332.383
329.838
330.342
330.803
331.066
331.475
331.962
332.087
332.168
332.16
332.118
332.025
331.853
331.443
331.34
330.932
330.203
329.599
329.002
328.42
327.651
324.643
325.038
325.415
325.601
325.993
326.39
326.457
326.549
326.531
326.496
326.419
326.269
325.927
325.862
325.539
324.849
324.459
323.886
323.508
322.812
319.341
319.617
319.897
320.009
320.366
320.636
320.667
320.791
320.787
320.795
320.723
320.543
320.312
320.24
320.001
319.414
319.167
318.67
318.406
317.826
313.912
314.101
314.273
314.317
314.63
314.833
314.83
314.939
314.881
315.004
314.908
314.732
314.566
314.496
314.372
313.889
313.76
313.348
313.188
312.813
308.375
308.516
308.57
308.633
308.79
308.939
308.961
309.001
308.903
309.05
309
308.849
308.782
308.728
308.684
308.36
308.304
308.029
307.974
307.745
302.803
302.865
302.86
302.891
302.955
302.988
302.994
303.029
302.975
303.022
303.032
302.972
302.955
302.91
302.931
302.818
302.793
302.704
302.703
302.607
340.91
341.627
342.32
342.623
343.289
343.759
344.128
344.172
344.261
344.37
344.363
344.274
343.555
343.069
342.559
341.552
340.72
340.026
339.053
338.453
335.955
336.568
337.158
337.427
338.021
338.406
338.736
338.75
338.849
338.956
338.927
338.83
338.245
337.806
337.35
336.489
335.715
335.1
334.237
333.747
330.744
331.316
331.739
332.026
332.471
332.832
333.084
333.123
333.251
333.305
333.29
333.139
332.689
332.309
331.968
331.197
330.521
329.947
329.26
328.795
325.352
325.888
326.156
326.464
326.832
327.067
327.258
327.326
327.433
327.482
327.462
327.266
326.937
326.669
326.415
325.745
325.2
324.678
324.131
323.712
319.866
320.247
320.465
320.675
321.018
321.181
321.321
321.369
321.465
321.552
321.511
321.295
321.081
320.887
320.692
320.179
319.74
319.308
318.895
318.52
314.261
314.553
314.676
314.808
315.109
315.227
315.287
315.351
315.387
315.478
315.434
315.272
315.157
315.03
314.889
314.491
314.158
313.841
313.598
313.259
308.572
308.767
308.837
308.908
309.106
309.171
309.197
309.249
309.243
309.339
309.324
309.215
309.138
309.067
309.012
308.748
308.549
308.346
308.187
307.975
302.867
302.924
302.968
302.988
303.059
303.058
303.086
303.122
303.105
303.153
303.128
303.1
303.081
303.042
303.034
302.938
302.883
302.816
302.738
302.679
341.94
342.858
343.496
344.155
344.649
345.004
345.554
345.567
345.865
345.796
345.774
345.461
344.614
344.376
344.018
343.012
342.112
341.263
340.415
339.322
336.875
337.624
338.209
338.771
339.22
339.503
339.992
339.96
340.242
340.169
340.192
339.874
339.153
338.937
338.647
337.727
336.924
336.199
335.426
334.498
331.526
332.156
332.653
333.196
333.495
333.77
334.153
334.157
334.378
334.317
334.286
334.085
333.463
333.262
333.004
332.214
331.548
330.936
330.199
329.491
326.056
326.517
326.929
327.387
327.615
327.854
328.143
328.172
328.381
328.315
328.261
328.094
327.57
327.427
327.185
326.572
326.017
325.47
324.854
324.324
320.427
320.794
321.109
321.399
321.608
321.796
321.985
322.069
322.238
322.133
322.102
321.955
321.597
321.482
321.255
320.778
320.35
319.903
319.396
319.066
314.626
314.97
315.203
315.304
315.525
315.654
315.788
315.835
315.939
315.888
315.838
315.778
315.539
315.44
315.229
314.867
314.537
314.256
313.922
313.687
308.791
309.006
309.197
309.21
309.384
309.482
309.534
309.54
309.603
309.554
309.527
309.507
309.393
309.307
309.186
308.959
308.738
308.585
308.402
308.237
302.951
303.024
303.109
303.076
303.149
303.202
303.2
303.215
303.212
303.193
303.179
303.195
303.158
303.134
303.102
303
302.93
302.891
302.827
302.77
342.937
343.639
344.69
345.49
346.057
346.38
346.709
346.978
347.09
347.05
347.118
346.797
346.354
345.651
345.234
344.493
343.438
342.513
341.567
340.778
337.736
338.295
339.153
339.921
340.422
340.659
340.994
341.235
341.343
341.303
341.343
341.025
340.679
340.055
339.628
339.034
338.066
337.264
336.46
335.733
332.268
332.729
333.459
334.123
334.542
334.775
335.08
335.224
335.311
335.302
335.31
335.013
334.744
334.214
333.795
333.349
332.507
331.844
331.159
330.539
326.58
326.999
327.595
328.158
328.5
328.708
328.937
329.056
329.155
329.035
329.099
328.84
328.642
328.217
327.889
327.508
326.814
326.266
325.7
325.209
320.804
321.105
321.569
322.044
322.339
322.472
322.633
322.771
322.815
322.699
322.763
322.561
322.394
322.098
321.855
321.522
321.028
320.55
320.111
319.754
314.918
315.15
315.457
315.832
316.06
316.145
316.226
316.384
316.331
316.308
316.34
316.175
316.059
315.884
315.695
315.451
315.125
314.734
314.426
314.153
308.97
309.13
309.307
309.539
309.69
309.751
309.77
309.875
309.798
309.796
309.878
309.743
309.692
309.571
309.445
309.256
309.111
308.865
308.667
308.539
302.994
303.065
303.119
303.208
303.249
303.286
303.274
303.29
303.289
303.28
303.311
303.277
303.257
303.201
303.18
303.093
303.043
302.968
302.917
302.89
344.033
344.839
345.604
346.539
347.282
347.73
347.923
348.33
348.451
348.532
348.203
348.23
347.557
347.074
346.585
345.618
344.595
343.826
342.755
341.829
338.646
339.345
340.029
340.807
341.484
341.867
342.039
342.396
342.466
342.543
342.27
342.273
341.688
341.33
340.852
339.967
339.071
338.39
337.452
336.651
333.057
333.625
334.205
334.836
335.452
335.757
335.884
336.219
336.269
336.302
336.125
336.14
335.596
335.345
334.897
334.088
333.353
332.785
331.964
331.26
327.259
327.718
328.199
328.708
329.205
329.463
329.537
329.878
329.902
329.905
329.778
329.832
329.37
329.161
328.815
328.1
327.495
327.023
326.356
325.756
321.342
321.728
322.034
322.474
322.83
323.049
323.094
323.41
323.388
323.391
323.309
323.352
323.007
322.846
322.551
321.943
321.496
321.14
320.633
320.16
315.299
315.616
315.806
316.128
316.373
316.565
316.566
316.804
316.723
316.772
316.706
316.756
316.534
316.417
316.182
315.744
315.423
315.2
314.829
314.463
309.214
309.387
309.528
309.694
309.877
310.013
309.969
310.143
310.039
310.125
310.049
310.12
309.972
309.887
309.742
309.479
309.322
309.167
308.935
308.701
303.095
303.154
303.209
303.249
303.324
303.348
303.326
303.428
303.357
303.398
303.368
303.393
303.345
303.324
303.298
303.205
303.147
303.066
303.008
302.932
344.983
345.94
346.683
347.494
348.318
348.849
349.058
349.379
349.661
349.768
349.559
349.188
348.744
348
347.567
346.939
345.893
344.897
343.828
342.772
339.473
340.293
340.9
341.665
342.353
342.887
343.028
343.285
343.559
343.678
343.412
343.088
342.76
342.093
341.732
341.124
340.211
339.384
338.404
337.501
333.756
334.39
334.881
335.641
336.148
336.665
336.775
336.985
337.184
337.296
337.029
336.807
336.498
335.978
335.647
335.091
334.309
333.613
332.773
332.047
327.846
328.33
328.73
329.367
329.806
330.221
330.308
330.503
330.659
330.732
330.513
330.388
330.081
329.652
329.413
328.886
328.234
327.713
326.973
326.391
321.793
322.185
322.469
322.948
323.346
323.661
323.699
323.894
323.996
324.014
323.858
323.759
323.537
323.154
323.02
322.577
322.064
321.674
321.085
320.643
315.624
315.925
316.126
316.469
316.809
316.994
316.978
317.166
317.199
317.232
317.132
317
316.902
316.599
316.516
316.159
315.859
315.583
315.16
314.812
309.41
309.614
309.7
309.937
310.151
310.251
310.229
310.367
310.355
310.362
310.335
310.266
310.19
310.018
309.924
309.703
309.555
309.356
309.126
308.903
303.16
303.24
303.264
303.344
303.393
303.445
303.438
303.465
303.473
303.472
303.495
303.446
303.418
303.37
303.354
303.255
303.22
303.125
303.057
302.995
345.835
346.929
347.62
348.539
349.238
349.826
350.16
350.361
350.511
350.584
350.487
350.235
349.798
349.172
348.633
347.808
346.926
345.897
344.714
343.747
340.207
341.171
341.763
342.573
343.136
343.702
343.978
344.169
344.283
344.362
344.282
344.006
343.639
343.124
342.64
341.903
341.105
340.206
339.139
338.344
334.44
335.156
335.65
336.36
336.854
337.303
337.57
337.752
337.778
337.899
337.776
337.587
337.255
336.849
336.412
335.745
335.05
334.328
333.419
332.749
328.45
328.966
329.348
329.975
330.365
330.75
330.938
331.131
331.052
331.241
331.123
330.986
330.72
330.354
330.002
329.423
328.913
328.286
327.583
327.02
322.308
322.647
322.935
323.455
323.778
324.073
324.204
324.299
324.289
324.422
324.32
324.211
324.048
323.752
323.466
322.957
322.642
322.12
321.609
321.173
316.024
316.24
316.425
316.857
317.072
317.303
317.365
317.387
317.455
317.494
317.432
317.374
317.282
317.07
316.861
316.469
316.258
315.853
315.504
315.19
309.629
309.78
309.886
310.15
310.259
310.433
310.457
310.464
310.508
310.534
310.479
310.463
310.387
310.295
310.157
309.923
309.808
309.561
309.331
309.151
303.235
303.301
303.329
303.405
303.436
303.505
303.522
303.53
303.543
303.557
303.508
303.506
303.493
303.472
303.416
303.339
303.296
303.207
303.147
303.104
346.758
347.713
348.685
349.605
350.181
350.649
350.978
351.59
351.555
351.791
351.518
351.3
350.731
350.357
349.529
348.674
347.699
346.551
345.646
344.47
341.034
341.828
342.681
343.514
343.968
344.409
344.683
345.264
345.174
345.415
345.168
344.926
344.499
344.137
343.439
342.591
341.784
340.717
340.007
339.003
335.068
335.698
336.455
337.178
337.544
337.927
338.185
338.637
338.632
338.795
338.577
338.333
338.028
337.681
337.082
336.3
335.709
334.757
334.187
333.316
328.944
329.423
330.054
330.605
330.947
331.275
331.492
331.885
331.886
331.975
331.826
331.587
331.371
331.038
330.532
329.921
329.524
328.624
328.227
327.455
322.681
323.007
323.478
323.951
324.175
324.456
324.658
324.972
324.965
325.03
324.937
324.69
324.547
324.236
323.852
323.428
323.116
322.377
322.069
321.493
316.318
316.458
316.809
317.187
317.336
317.555
317.705
317.958
317.949
317.988
317.936
317.717
317.599
317.347
317.074
316.847
316.636
316.034
315.82
315.405
309.84
309.892
310.082
310.352
310.457
310.607
310.653
310.823
310.84
310.851
310.779
310.68
310.608
310.46
310.252
310.166
310.031
309.645
309.512
309.268
303.314
303.326
303.362
303.477
303.515
303.542
303.583
303.618
303.654
303.656
303.62
303.574
303.564
303.518
303.437
303.398
303.391
303.242
303.18
303.11
347.73
348.63
349.587
350.42
350.926
351.648
351.974
352.433
352.593
352.663
352.489
352.132
351.661
351.238
350.442
349.757
348.629
347.442
346.594
345.371
341.879
342.601
343.462
344.219
344.614
345.293
345.562
345.976
346.124
346.173
345.997
345.656
345.256
344.929
344.152
343.569
342.54
341.509
340.805
339.74
335.787
336.347
337.098
337.742
338.115
338.681
338.883
339.231
339.387
339.439
339.334
338.983
338.623
338.348
337.696
337.188
336.29
335.38
334.833
333.948
329.516
329.913
330.549
331.077
331.415
331.905
332.039
332.341
332.47
332.506
332.462
332.127
331.814
331.571
331.076
330.631
329.882
329.108
328.704
328.001
323.121
323.362
323.886
324.284
324.512
324.965
325.028
325.321
325.406
325.439
325.444
325.156
324.87
324.675
324.32
323.917
323.364
322.746
322.452
321.868
316.577
316.719
317.125
317.409
317.545
317.936
317.962
318.19
318.26
318.23
318.294
318.097
317.844
317.697
317.428
317.193
316.759
316.319
316.115
315.664
310.02
310.053
310.317
310.491
310.561
310.799
310.858
310.97
311.045
310.971
311.019
310.913
310.762
310.659
310.475
310.373
310.052
309.811
309.709
309.424
303.362
303.346
303.457
303.527
303.536
303.629
303.634
303.678
303.717
303.7
303.696
303.661
303.621
303.561
303.517
303.486
303.376
303.279
303.246
303.169
348.263
349.114
350.138
350.919
351.698
352.248
352.864
353.305
353.443
353.289
353.307
352.949
352.583
352.015
351.357
350.423
349.357
348.375
347.146
346.119
342.296
343.06
343.994
344.66
345.29
345.83
346.339
346.738
346.846
346.694
346.705
346.388
346.091
345.536
344.995
344.169
343.164
342.332
341.301
340.356
336.125
336.74
337.615
338.16
338.676
339.134
339.623
339.888
339.976
339.892
339.872
339.601
339.324
338.883
338.378
337.673
336.787
336.099
335.239
334.402
329.742
330.272
331.045
331.438
331.875
332.249
332.675
332.859
332.924
332.879
332.845
332.594
332.391
332.014
331.588
331.006
330.3
329.736
329.021
328.304
323.253
323.648
324.322
324.596
324.931
325.256
325.589
325.711
325.739
325.704
325.683
325.489
325.274
325.011
324.679
324.177
323.658
323.235
322.676
322.131
316.697
316.923
317.449
317.626
317.9
318.102
318.361
318.433
318.465
318.434
318.452
318.296
318.105
317.926
317.703
317.329
316.964
316.688
316.275
315.862
310.051
310.179
310.491
310.586
310.79
310.916
311.082
311.116
311.177
311.099
311.118
311.03
310.899
310.791
310.655
310.427
310.212
310.028
309.769
309.513
303.378
303.4
303.496
303.572
303.626
303.666
303.725
303.731
303.766
303.716
303.733
303.674
303.66
303.64
303.563
303.499
303.428
303.362
303.262
303.177
348.722
349.533
350.782
351.403
352.366
352.889
353.465
354.08
354.297
354.049
353.96
353.594
353.13
352.525
351.795
351.044
349.985
349.155
347.666
346.755
342.769
343.433
344.515
345.056
345.897
346.359
346.87
347.4
347.592
347.385
347.294
346.891
346.576
346.011
345.377
344.622
343.753
342.983
341.668
340.967
336.538
337.061
338.034
338.497
339.169
339.602
340.056
340.48
340.623
340.492
340.383
339.992
339.779
339.299
338.755
338.098
337.343
336.646
335.523
334.95
330.156
330.515
331.346
331.725
332.259
332.627
332.992
333.384
333.446
333.408
333.282
332.904
332.837
332.412
331.952
331.389
330.778
330.188
329.266
328.772
323.594
323.864
324.508
324.784
325.225
325.493
325.78
326.14
326.154
326.111
326.036
325.693
325.696
325.358
324.977
324.547
324.09
323.629
322.895
322.446
316.965
317.092
317.583
317.754
318.111
318.288
318.465
318.776
318.782
318.756
318.674
318.41
318.428
318.214
317.911
317.602
317.264
316.946
316.421
316.069
310.27
310.291
310.572
310.71
310.925
311.021
311.093
311.333
311.3
311.31
311.261
311.064
311.062
310.996
310.757
310.586
310.363
310.207
309.887
309.654
303.442
303.441
303.553
303.601
303.654
303.692
303.712
303.825
303.801
303.807
303.771
303.713
303.712
303.678
303.607
303.543
303.474
303.439
303.316
303.229
349.224
350.134
351.285
352.014
352.863
353.594
354.125
354.766
354.76
354.682
354.501
354.264
353.778
353.343
352.226
351.577
350.619
349.498
348.204
347.383
343.172
343.904
344.996
345.572
346.3
346.917
347.418
348.011
347.952
347.907
347.777
347.496
347.083
346.642
345.752
345.107
344.31
343.335
342.141
341.49
336.872
337.498
338.391
338.915
339.525
339.993
340.535
340.998
340.992
340.89
340.797
340.502
340.167
339.737
339.056
338.459
337.792
336.97
335.908
335.389
330.382
330.923
331.603
332.067
332.569
332.944
333.497
333.794
333.808
333.676
333.584
333.347
333.076
332.702
332.186
331.631
331.089
330.442
329.587
329.121
323.764
324.165
324.744
325.044
325.498
325.777
326.234
326.468
326.43
326.365
326.257
326.067
325.884
325.59
325.161
324.712
324.271
323.788
323.175
322.793
317.074
317.288
317.774
317.949
318.319
318.474
318.819
318.994
318.975
318.926
318.827
318.723
318.594
318.361
318.06
317.695
317.351
317.052
316.639
316.34
310.306
310.381
310.725
310.793
311.043
311.105
311.331
311.446
311.433
311.416
311.331
311.295
311.223
311.071
310.912
310.633
310.442
310.269
310.031
309.862
303.47
303.476
303.586
303.628
303.717
303.737
303.831
303.847
303.813
303.819
303.795
303.806
303.788
303.712
303.664
303.57
303.491
303.455
303.377
303.325
349.574
350.495
351.539
352.416
353.042
353.798
354.626
354.957
355.053
354.965
355.065
354.615
354.097
353.815
352.791
351.754
350.958
349.596
348.606
347.512
343.433
344.223
345.183
345.915
346.424
347.161
347.867
348.14
348.2
348.099
348.179
347.83
347.328
347.096
346.188
345.256
344.573
343.364
342.518
341.554
337.065
337.768
338.654
339.212
339.64
340.3
340.865
341.083
341.132
341.022
341.038
340.829
340.321
340.148
339.356
338.593
337.985
336.981
336.248
335.415
330.507
331.15
331.896
332.317
332.658
333.208
333.681
333.856
333.89
333.764
333.786
333.653
333.198
333.06
332.409
331.777
331.264
330.489
329.854
329.14
323.858
324.377
325.024
325.326
325.634
325.981
326.358
326.502
326.506
326.389
326.404
326.295
325.917
325.817
325.343
324.869
324.435
323.859
323.32
322.782
317.064
317.497
317.995
318.164
318.455
318.613
318.942
319.017
319.001
318.929
318.923
318.837
318.561
318.508
318.175
317.866
317.465
317.12
316.723
316.317
310.267
310.538
310.847
310.962
311.14
311.231
311.428
311.493
311.445
311.396
311.4
311.289
311.147
311.161
310.939
310.786
310.506
310.317
310.054
309.799
303.438
303.539
303.628
303.664
303.736
303.775
303.825
303.856
303.854
303.821
303.809
303.785
303.738
303.754
303.688
303.634
303.523
303.436
303.387
303.303
)
;

boundaryField
{
    hotSide
    {
        type            fixedGradient;
        gradient        nonuniform List<scalar> 
400
(
264.907
278.977
293.005
306.93
320.687
334.213
347.442
360.309
372.751
384.704
396.107
406.901
417.03
426.441
435.084
442.914
449.89
455.978
461.145
465.367
269.927
284.416
298.868
313.22
327.405
341.357
355.01
368.296
381.149
393.504
405.297
416.469
426.959
436.714
445.683
453.818
461.077
467.422
472.823
477.252
274.207
289.079
303.918
318.661
333.238
347.583
361.625
375.296
388.529
401.255
413.411
424.932
435.759
445.835
455.108
463.528
471.052
477.642
483.264
487.89
277.744
292.959
308.147
323.242
338.173
352.872
367.267
381.288
394.865
407.93
420.415
432.256
443.391
453.762
463.314
471.997
479.767
486.583
492.412
497.224
280.542
296.059
311.554
326.959
342.203
357.215
371.923
386.255
400.14
413.506
426.286
438.414
449.825
460.462
470.267
479.189
487.182
494.206
500.224
505.207
282.61
298.384
314.143
329.814
345.328
360.611
375.59
390.191
404.343
417.972
431.01
443.388
455.043
465.913
475.941
485.075
493.268
500.476
506.665
511.804
283.961
299.948
315.924
331.817
347.554
363.063
378.268
393.096
407.472
421.323
434.579
447.17
459.032
470.102
480.322
489.638
498.003
505.373
511.711
516.987
284.613
300.766
316.911
332.978
348.892
364.58
379.966
394.974
409.53
423.56
436.992
449.756
461.787
473.021
483.399
492.866
501.375
508.88
515.345
520.738
284.584
300.854
317.121
333.313
349.356
365.174
380.692
395.834
410.524
424.688
438.253
451.149
463.309
474.669
485.169
494.756
503.378
510.992
517.559
523.048
283.895
300.233
316.573
332.84
348.961
364.861
380.462
395.689
410.466
424.718
438.371
451.356
463.604
475.051
485.638
495.308
504.013
511.706
518.35
523.912
282.565
298.922
315.283
331.576
347.725
363.656
379.291
394.555
409.37
423.663
437.359
450.388
462.682
474.176
484.811
494.531
503.285
511.028
517.722
523.334
280.613
296.939
313.273
329.54
345.666
361.577
377.196
392.446
407.252
421.538
435.231
448.26
460.557
472.058
482.703
492.436
501.206
508.969
515.686
521.323
278.058
294.304
310.558
326.749
342.803
358.643
374.196
389.383
404.13
418.361
432.004
444.988
457.246
468.713
479.329
489.039
497.793
505.544
512.256
517.894
274.915
291.031
307.158
323.222
339.152
354.873
370.308
385.383
400.023
414.152
427.7
440.595
452.77
464.162
474.711
484.362
493.065
500.775
507.453
513.068
271.202
287.139
303.088
318.977
334.734
350.284
365.554
380.468
394.953
408.934
422.34
435.102
447.152
458.429
468.873
478.429
487.048
494.686
501.304
506.871
266.931
282.643
298.366
314.031
329.566
344.898
359.954
374.66
388.943
402.73
415.95
428.535
440.421
451.543
461.845
471.271
479.775
487.311
493.842
499.336
262.117
277.557
293.008
308.402
323.668
338.736
353.531
367.983
382.019
395.567
408.559
420.927
432.606
443.536
453.66
462.923
471.28
478.685
485.104
490.503
256.773
271.897
287.032
302.11
317.063
331.82
346.311
360.464
374.209
387.477
400.199
412.31
423.746
434.447
444.358
453.427
461.606
468.855
475.136
480.419
250.916
265.682
280.457
295.177
309.773
324.177
338.321
352.134
365.548
378.495
390.909
402.725
413.881
424.32
433.986
442.83
450.805
457.87
463.991
469.137
244.561
258.929
273.306
287.626
301.826
315.838
329.594
343.028
356.073
368.662
380.731
392.217
403.06
413.204
422.596
431.187
438.932
445.791
451.73
456.721
)
;
    }
    coldSide
    {
        type            mixed;
        refValue        uniform 300;
        refGradient     uniform 0;
        valueFraction   uniform 0.991591;
        source          uniform 0;
        value           nonuniform List<scalar> 
400
(
300.018
300.019
300.02
300.02
300.021
300.022
300.023
300.024
300.024
300.025
300.025
300.026
300.027
300.027
300.028
300.028
300.028
300.029
300.029
300.029
300.019
300.019
300.02
300.021
300.022
300.022
300.023
300.024
300.025
300.025
300.026
300.027
300.027
300.028
300.028
300.028
300.029
300.029
300.029
300.03
300.019