/*--------------------------------*- C++ -*----------------------------------*\
| =========                 |                                                 |
| \\      /  F ield         | OpenFOAM: The Open Source CFD Toolbox           |
|  \\    /   O peration     | Version:  2212                                  |
|   \\  /    A nd           | Website:  www.openfoam.com                      |
|    \\/     M anipulation  |                                                 |
\*---------------------------------------------------------------------------*/
FoamFile
{
    version     2.0;
    format      ascii;
    arch        "LSB;label=32;scalar=64";
    class       volScalarField;
    location    "0";
    object      T;
}
// * * * * * * * * * * * * * * * * * * * * * * * * * * * * * * * * * * * * * //

dimensions      [0 0 0 1 0 0 0];

internalField   nonuniform List<scalar> 
3200
(
332.243
331.122
330.295
329.758
329.593
329.675
329.905
330.29
330.498
330.655
330.521
330.55
330.218
329.849
329.67
329.422
329.371
329.673
330.502
331.444
327.561
326.638
325.972
325.49
325.367
325.456
325.664
326.007
326.218
326.334
326.23
326.25
325.974
325.646
325.504
325.295
325.239
325.484
326.195
326.95
323.022
322.292
321.789
321.362
321.249
321.343
321.53
321.812
322.028
322.116
322.053
322.066
321.82
321.533
321.425
321.253
321.216
321.411
321.968
322.597
318.643
318.085
317.709
317.33
317.251
317.342
317.486
317.697
317.934
317.992
317.969
317.95
317.767
317.495
317.41
317.272
317.279
317.419
317.857
318.369
314.389
313.973
313.708
313.374
313.3
313.445
313.535
313.672
313.907
313.935
313.926
313.9
313.76
313.528
313.465
313.341
313.392
313.482
313.818
314.21
310.215
309.929
309.754
309.507
309.444
309.584
309.643
309.712
309.924
309.914
309.93
309.885
309.798
309.628
309.587
309.472
309.544
309.595
309.837
310.117
306.116
305.932
305.846
305.673
305.644
305.75
305.794
305.808
305.959
305.926
305.954
305.915
305.872
305.764
305.744
305.669
305.712
305.735
305.902
306.075
302.045
301.985
301.957
301.893
301.894
301.937
301.943
301.932
301.993
301.987
301.993
301.982
301.964
301.929
301.92
301.896
301.907
301.911
301.978
302.035
332.3
331.264
330.296
329.833
329.591
329.836
330.115
330.517
330.777
330.853
330.897
330.662
330.534
330.086
329.892
329.618
329.528
329.902
330.55
331.483
327.62
326.779
325.952
325.542
325.353
325.583
325.856
326.203
326.443
326.488
326.52
326.357
326.26
325.845
325.683
325.456
325.356
325.689
326.255
327.014
323.117
322.425
321.749
321.378
321.245
321.442
321.71
322.006
322.199
322.219
322.285
322.154
322.062
321.692
321.578
321.376
321.297
321.578
322.08
322.659
318.762
318.201
317.65
317.342
317.239
317.411
317.634
317.888
318.05
318.049
318.13
318.025
317.963
317.644
317.557
317.349
317.347
317.541
317.976
318.403
314.503
314.081
313.649
313.419
313.307
313.471
313.66
313.828
313.969
313.951
314.035
313.961
313.94
313.688
313.616
313.405
313.443
313.571
313.925
314.245
310.286
310.002
309.706
309.548
309.476
309.593
309.734
309.84
309.968
309.939
309.989
309.944
309.94
309.76
309.705
309.528
309.57
309.661
309.921
310.138
306.143
305.977
305.822
305.73
305.68
305.752
305.848
305.89
305.98
305.943
305.973
305.951
305.962
305.853
305.823
305.706
305.73
305.795
305.941
306.066
302.061
302.009
301.945
301.919
301.901
301.927
301.955
301.96
301.993
301.984
301.998
301.982
301.993
301.965
301.949
301.905
301.925
301.951
301.987
302.041
332.533
331.427
330.607
330.118
330.011
330.144
330.563
330.881
331.237
331.341
331.442
331.281
331.019
330.669
330.252
330.085
329.889
330.176
330.827
331.749
327.82
326.91
326.226
325.818
325.721
325.839
326.235
326.502
326.827
326.909
327.006
326.888
326.669
326.366
326.011
325.854
325.685
325.942
326.477
327.213
323.262
322.539
321.966
321.631
321.572
321.683
322.014
322.239
322.531
322.584
322.686
322.591
322.412
322.143
321.879
321.719
321.571
321.796
322.233
322.801
318.852
318.284
317.821
317.559
317.527
317.604
317.863
318.092
318.306
318.378
318.462
318.384
318.225
318.005
317.798
317.657
317.535
317.727
318.081
318.483
314.56
314.152
313.762
313.599
313.53
313.615
313.812
314.012
314.162
314.239
314.308
314.237
314.116
313.926
313.76
313.658
313.562
313.73
313.983
314.302
310.359
310.079
309.787
309.701
309.627
309.685
309.822
309.958
310.053
310.161
310.188
310.135
310.058
309.91
309.799
309.719
309.656
309.775
309.94
310.179
306.212
306.045
305.864
305.813
305.774
305.804
305.887
305.964
306.029
306.093
306.099
306.074
306.039
305.94
305.897
305.828
305.79
305.86
305.944
306.088
302.077
302.028
301.965
301.943
301.937
301.942
301.981
301.996
302.019
302.038
302.048
302.035
302.019
301.982
301.977
301.958
301.935
301.953
302.004
302.046
332.922
331.902
331.07
330.742
330.636
330.622
331.067
331.388
331.752
331.895
332.07
331.877
331.691
331.296
330.914
330.571
330.426
330.604
331.287
332.162
328.168
327.32
326.622
326.365
326.269
326.24
326.671
326.944
327.254
327.399
327.555
327.381
327.234
326.906
326.567
326.282
326.152
326.309
326.876
327.592
323.55
322.884
322.324
322.103
322.038
322.001
322.408
322.607
322.886
323.032
323.14
322.999
322.88
322.584
322.324
322.07
321.978
322.119
322.557
323.158
319.057
318.55
318.127
317.935
317.895
317.872
318.227
318.378
318.626
318.742
318.824
318.705
318.606
318.356
318.161
317.946
317.866
317.992
318.346
318.803
314.698
314.329
314.028
313.857
313.831
313.83
314.113
314.212
314.43
314.482
314.583
314.495
314.399
314.211
314.047
313.89
313.836
313.922
314.212
314.536
310.426
310.193
309.997
309.863
309.837
309.847
310.038
310.119
310.277
310.303
310.396
310.317
310.272
310.117
309.993
309.886
309.849
309.898
310.126
310.331
306.23
306.1
305.983
305.923
305.89
305.905
306.013
306.077
306.163
306.168
306.22
306.168
306.158
306.054
305.992
305.914
305.892
305.904
306.074
306.176
302.078
302.05
302.005
301.984
301.971
301.968
302.006
302.033
302.07
302.06
302.084
302.057
302.059
302.022
302.013
301.98
301.977
301.972
302.036
302.059
333.534
332.49
331.743
331.302
331.203
331.301
331.721
332.087
332.479
332.672
332.708
332.571
332.383
331.907
331.633
331.273
331.061
331.328
332.012
332.874
328.703
327.811
327.233
326.833
326.751
326.847
327.22
327.55
327.894
328.097
328.121
327.988
327.848
327.452
327.189
326.917
326.713
326.935
327.517
328.213
324.026
323.3
322.869
322.482
322.437
322.515
322.86
323.13
323.431
323.624
323.626
323.483
323.408
323.076
322.874
322.654
322.472
322.649
323.164
323.688
319.473
318.918
318.586
318.245
318.244
318.293
318.586
318.79
319.067
319.209
319.22
319.083
319.066
318.77
318.608
318.437
318.299
318.453
318.865
319.263
315.015
314.627
314.382
314.12
314.111
314.147
314.365
314.539
314.782
314.882
314.877
314.755
314.764
314.538
314.413
314.273
314.168
314.295
314.617
314.904
310.664
310.398
310.239
310.047
310.036
310.057
310.208
310.352
310.541
310.587
310.612
310.496
310.512
310.361
310.264
310.169
310.09
310.187
310.398
310.597
306.376
306.222
306.13
306.014
306.006
306.025
306.126
306.198
306.331
306.348
306.38
306.281
306.305
306.215
306.151
306.089
306.046
306.111
306.243
306.36
302.136
302.071
302.039
302.016
302.004
302.015
302.057
302.071
302.127
302.116
302.138
302.098
302.117
302.078
302.068
302.047
302.033
302.05
302.09
302.131
334.313
333.247
332.53
332.022
331.947
332.124
332.455
332.779
333.178
333.597
333.582
333.419
333.121
332.618
332.308
332.084
331.901
332.186
332.839
333.68
329.387
328.493
327.905
327.469
327.392
327.566
327.857
328.16
328.509
328.888
328.868
328.69
328.48
328.03
327.798
327.585
327.432
327.645
328.194
328.912
324.62
323.863
323.411
323.051
322.997
323.129
323.369
323.632
323.975
324.289
324.264
324.091
323.956
323.572
323.374
323.194
323.059
323.23
323.668
324.276
319.976
319.337
319.031
318.727
318.69
318.789
318.991
319.211
319.539
319.765
319.725
319.589
319.505
319.19
319.031
318.875
318.747
318.898
319.24
319.753
315.43
314.939
314.715
314.49
314.448
314.529
314.715
314.858
315.15
315.306
315.267
315.154
315.106
314.85
314.723
314.611
314.538
314.624
314.878
315.306
310.956
310.609
310.463
310.31
310.281
310.334
310.473
310.581
310.794
310.895
310.867
310.795
310.762
310.564
310.457
310.417
310.376
310.41
310.602
310.892
306.541
306.347
306.26
306.177
306.154
306.18
306.289
306.349
306.473
306.531
306.508
306.473
306.44
306.323
306.252
306.252
306.223
306.25
306.361
306.522
302.178
302.123
302.084
302.058
302.066
302.06
302.112
302.126
302.172
302.191
302.179
302.168
302.163
302.109
302.085
302.101
302.085
302.096
302.133
302.195
335.057
334.129
333.253
332.797
332.751
333.065
333.4
333.696
333.968
334.353
334.42
334.348
334.072
333.66
333.199
333.002
332.867
333.088
333.708
334.577
330.014
329.27
328.504
328.126
328.097
328.378
328.693
328.943
329.199
329.547
329.595
329.546
329.289
328.931
328.547
328.385
328.268
328.437
328.958
329.656
325.137
324.536
323.914
323.607
323.56
323.804
324.079
324.324
324.546
324.831
324.875
324.841
324.62
324.303
324.001
323.861
323.763
323.902
324.315
324.895
320.397
319.92
319.437
319.197
319.155
319.341
319.57
319.788
319.972
320.192
320.22
320.242
320.051
319.755
319.537
319.412
319.35
319.451
319.778
320.236
315.79
315.403
315.028
314.861
314.833
314.968
315.147
315.306
315.481
315.638
315.667
315.676
315.558
315.273
315.138
315.023
314.997
315.048
315.303
315.652
311.217
310.951
310.69
310.566
310.572
310.674
310.76
310.885
311.038
311.151
311.174
311.161
311.087
310.864
310.789
310.685
310.687
310.724
310.892
311.142
306.716
306.567
306.383
306.321
306.341
306.421
306.464
306.521
306.618
306.702
306.704
306.681
306.656
306.505
306.469
306.398
306.407
306.431
306.518
306.665
302.243
302.203
302.128
302.11
302.13
302.156
302.185
302.181
302.214
302.24
302.246
302.228
302.242
302.172
302.161
302.127
302.148
302.15
302.177
302.236
336.076
335.17
334.235
333.796
333.737
333.872
334.247
334.541
334.934
335.287
335.34
335.354
335.056
334.572
334.159
333.949
333.751
334.102
334.712
335.517
330.903
330.127
329.355
329
328.923
329.087
329.434
329.676
330.022
330.321
330.4
330.416
330.133
329.712
329.382
329.173
329.024
329.315
329.824
330.458
325.893
325.244
324.622
324.314
324.272
324.421
324.714
324.913
325.221
325.479
325.596
325.593
325.313
324.97
324.71
324.504
324.375
324.639
325.06
325.528
321.008
320.477
320.018
319.751
319.724
319.842
320.084
320.253
320.516
320.727
320.853
320.823
320.566
320.305
320.129
319.912
319.819
320.038
320.366
320.732
316.221
315.839
315.477
315.276
315.244
315.336
315.551
315.667
315.892
316.034
316.148
316.112
315.894
315.716
315.619
315.41
315.345
315.515
315.752
316.031
311.529
311.27
311.031
310.865
310.827
310.914
311.068
311.137
311.307
311.421
311.513
311.453
311.279
311.182
311.139
310.967
310.929
311.046
311.212
311.395
306.905
306.754
306.629
306.506
306.489
306.536
306.614
306.665
306.766
306.833
306.907
306.863
306.731
306.687
306.685
306.56
306.545
306.624
306.707
306.823
302.302
302.259
302.224
302.179
302.183
302.19
302.214
302.239
302.26
302.284
302.315
302.303
302.25
302.237
302.232
302.187
302.183
302.224
302.242
302.296
337.153
336.14
335.272
334.904
334.729
334.879
335.186
335.457
335.842
336.339
336.288
336.19
335.993
335.659
335.293
334.963
334.773
335.222
335.741
336.445
331.835
330.983
330.231
329.94
329.822
329.94
330.227
330.46
330.786
331.216
331.2
331.136
330.948
330.667
330.325
330.07
329.897
330.272
330.708
331.273
326.677
325.978
325.314
325.099
325.025
325.114
325.374
325.583
325.852
326.229
326.222
326.17
326.027
325.769
325.477
325.285
325.121
325.429
325.817
326.244
321.619
321.092
320.538
320.385
320.338
320.418
320.635
320.802
321.022
321.338
321.338
321.302
321.161
320.959
320.754
320.564
320.424
320.676
320.998
321.328
316.67
316.3
315.884
315.776
315.733
315.797
315.958
316.096
316.287
316.518
316.504
316.485
316.375
316.236
316.11
315.921
315.815
315.998
316.276
316.483
311.835
311.581
311.285
311.254
311.197
311.258
311.35
311.447
311.597
311.753
311.733
311.735
311.652
311.567
311.482
311.352
311.302
311.373
311.57
311.727
307.085
306.914
306.756
306.75
306.704
306.749
306.807
306.867
306.972
307.047
307.035
307.042
306.969
306.923
306.885
306.802
306.793
306.81
306.913
307.031
302.367
302.311
302.272
302.256
302.238
302.264
302.274
302.306
302.335
302.368
302.357
302.359
302.32
302.318
302.313
302.273
302.269
302.281
302.31
302.364
338.115
337.227
336.364
336.079
335.811
335.964
336.08
336.535
336.831
337.315
337.298
337.146
337.074
336.698
336.353
336.066
336.01
336.363
336.915
337.556
332.655
331.9
331.174
330.943
330.733
330.855
330.996
331.396
331.645
332.084
332.048
331.923
331.89
331.556
331.268
331.015
330.94
331.249
331.716
332.229
327.386
326.755
326.121
325.961
325.803
325.885
326.016
326.365
326.567
326.961
326.915
326.839
326.831
326.53
326.279
326.072
325.999
326.247
326.65
327.043
322.243
321.731
321.185
321.095
320.982
321.043
321.129
321.435
321.61
321.946
321.88
321.841
321.823
321.606
321.391
321.207
321.147
321.346
321.675
321.97
317.202
316.793
316.377
316.318
316.248
316.277
316.345
316.579
316.751
316.999
316.931
316.917
316.888
316.743
316.552
316.413
316.382
316.524
316.785
316.997
312.238
311.946
311.653
311.6
311.554
311.588
311.619
311.796
311.938
312.096
312.056
312.053
312.022
311.911
311.776
311.694
311.665
311.774
311.94
312.094
307.339
307.155
306.983
306.944
306.916
306.935
306.941
307.068
307.152
307.244
307.208
307.235
307.196
307.14
307.052
307.016
306.989
307.061
307.155
307.239
302.455
302.401
302.347
302.331
302.316
302.325
302.326
302.367
302.397
302.429
302.405
302.419
302.409
302.391
302.362
302.349
302.333
302.355
302.379
302.424
339.176
338.393
337.567
337.195
336.99
336.954
337.064
337.619
337.707
338.199
338.432
338.173
338.081
337.599
337.334
337.105
337.2
337.504
337.929
338.669
333.534
332.913
332.217
331.881
331.759
331.717
331.819
332.319
332.407
332.84
333.053
332.818
332.749
332.319
332.113
331.905
331.98
332.229
332.594
333.188
328.087
327.601
327.007
326.741
326.666
326.625
326.712
327.152
327.221
327.591
327.781
327.56
327.527
327.16
326.997
326.807
326.85
327.07
327.384
327.861
322.794
322.409
321.937
321.745
321.677
321.639
321.708
322.088
322.14
322.451
322.634
322.428
322.377
322.109
321.95
321.816
321.863
322.005
322.291
322.654
317.62
317.333
316.983
316.846
316.778
316.737
316.796
317.104
317.152
317.393
317.57
317.358
317.309
317.121
316.993
316.911
316.918
317.041
317.269
317.548
312.543
312.336
312.071
311.985
311.941
311.923
311.948
312.184
312.208
312.389
312.518
312.356
312.332
312.193
312.087
312.061
312.031
312.109
312.301
312.482
307.518
307.405
307.22
307.168
307.16
307.146
307.161
307.311
307.307
307.42
307.508
307.402
307.407
307.292
307.236
307.234
307.22
307.257
307.379
307.476
302.518
302.479
302.421
302.404
302.402
302.399
302.404
302.44
302.452
302.474
302.51
302.476
302.483
302.435
302.42
302.427
302.421
302.43
302.478
302.501
340.367
339.658
338.725
338.325
338.146
338.093
338.266
338.603
338.819
339.155
339.343
339.149
338.989
338.621
338.277
338.321
338.32
338.639
339.202
339.796
334.553
333.999
333.211
332.877
332.754
332.739
332.86
333.162
333.366
333.685
333.831
333.633
333.498
333.206
332.895
332.924
332.901
333.2
333.665
334.189
328.914
328.496
327.85
327.574
327.499
327.501
327.589
327.863
328.022
328.343
328.429
328.264
328.145
327.889
327.627
327.655
327.642
327.867
328.26
328.723
323.442
323.126
322.612
322.398
322.328
322.36
322.434
322.676
322.769
323.07
323.113
323.005
322.896
322.681
322.482
322.498
322.493
322.667
322.981
323.366
318.098
317.872
317.483
317.34
317.265
317.293
317.359
317.548
317.626
317.861
317.888
317.82
317.737
317.556
317.411
317.408
317.437
317.549
317.784
318.095
312.853
312.689
312.432
312.327
312.281
312.303
312.351
312.502
312.55
312.704
312.74
312.685
312.632
312.498
312.412
312.386
312.4
312.492
312.674
312.881
307.705
307.597
307.442
307.385
307.343
307.37
307.402
307.502
307.517
307.608
307.619
307.599
307.56
307.492
307.447
307.4
307.416
307.472
307.596
307.713
302.57
302.531
302.5
302.476
302.457
302.467
302.492
302.508
302.531
302.544
302.548
302.546
302.537
302.506
302.498
302.478
302.476
302.497
302.541
302.576
341.651
340.898
339.93
339.496
339.26
339.358
339.441
339.504
339.816
340.114
340.153
340.054
339.884
339.576
339.39
339.351
339.491
339.817
340.485
341.119
335.687
335.089
334.254
333.885
333.711
333.775
333.886
333.939
334.223
334.489
334.537
334.461
334.27
334.022
333.843
333.83
333.941
334.21
334.783
335.306
329.898
329.42
328.756
328.442
328.3
328.318
328.449
328.498
328.734
328.971
329.027
328.972
328.781
328.599
328.417
328.425
328.51
328.731
329.203
329.647
324.25
323.884
323.358
323.108
323.019
323.006
323.125
323.174
323.351
323.552
323.608
323.572
323.413
323.276
323.1
323.102
323.187
323.37
323.746
324.093
318.734
318.473
318.058
317.866
317.809
317.805
317.907
317.942
318.08
318.217
318.29
318.244
318.124
318.038
317.869
317.871
317.977
318.104
318.393
318.627
313.316
313.134
312.86
312.699
312.664
312.672
312.766
312.782
312.87
312.973
313.009
312.962
312.912
312.855
312.718
312.701
312.814
312.885
313.107
313.248
307.975
307.868
307.701
307.592
307.595
307.586
307.663
307.654
307.702
307.77
307.791
307.744
307.736
307.704
307.599
307.61
307.68
307.721
307.866
307.914
302.688
302.63
302.569
302.542
302.531
302.538
302.572
302.564
302.583
302.6
302.611
302.578
302.586
302.579
302.536
302.537
302.565
302.572
302.64
302.662
342.776
342.047
341.159
340.77
340.469
340.35
340.424
340.636
340.843
341.001
341.102
341.024
340.887
340.62
340.537
340.378
340.61
341.026
341.577
342.256
336.678
336.062
335.294
334.983
334.738
334.651
334.721
334.914
335.084
335.264
335.348
335.278
335.126
334.92
334.842
334.702
334.884
335.283
335.709
336.273
330.757
330.242
329.596
329.343
329.163
329.1
329.175
329.329
329.5
329.649
329.706
329.652
329.486
329.349
329.285
329.15
329.296
329.626
329.966
330.429
324.97
324.558
324.015
323.84
323.705
323.648
323.719
323.858
324.021
324.12
324.191
324.121
323.985
323.889
323.832
323.71
323.811
324.067
324.345
324.714
319.264
318.98
318.583
318.437
318.337
318.322
318.375
318.458
318.61
318.67
318.739
318.677
318.588
318.504
318.469
318.348
318.429
318.625
318.84
319.116
313.686
313.504
313.222
313.132
313.044
313.042
313.094
313.135
313.272
313.3
313.338
313.297
313.254
313.196
313.152
313.066
313.112
313.257
313.413
313.598
308.187
308.097
307.916
307.856
307.816
307.826
307.837
307.86
307.948
307.956
307.989
307.97
307.942
307.929
307.884
307.851
307.854
307.94
308.027
308.145
302.732
302.712
302.65
302.628
302.613
302.62
302.615
302.629
302.657
302.664
302.677
302.66
302.651
302.653
302.639
302.626
302.637
302.657
302.678
302.729
343.917
343.136
342.401
341.915
341.567
341.412
341.442
341.59
341.791
342.087
341.996
342.023
341.923
341.722
341.623
341.588
341.735
342.35
342.771
343.482
337.615
336.989
336.356
335.974
335.687
335.582
335.608
335.749
335.923
336.193
336.102
336.11
336.014
335.858
335.775
335.741
335.869
336.378
336.715
337.321
331.504
331.023
330.484
330.19
329.952
329.912
329.9
330.047
330.165
330.415
330.34
330.337
330.238
330.137
330.069
330.018
330.147
330.549
330.81
331.316
325.56
325.202
324.756
324.531
324.338
324.333
324.31
324.429
324.535
324.76
324.69
324.677
324.572
324.5
324.479
324.41
324.52
324.821
325.045
325.439
319.764
319.491
319.14
318.945
318.848
318.836
318.807
318.904
318.984
319.177
319.108
319.111
319.016
318.962
318.959
318.896
318.996
319.202
319.388
319.699
314.057
313.872
313.612
313.481
313.416
313.411
313.374
313.446
313.508
313.679
313.602
313.608
313.538
313.513
313.493
313.451
313.542
313.67
313.806
314.021
308.425
308.296
308.15
308.073
308.037
308.047
307.993
308.042
308.089
308.199
308.156
308.14
308.126
308.092
308.077
308.065
308.109
308.201
308.272
308.401
302.813
302.772
302.731
302.701
302.684
302.686
302.67
302.689
302.713
302.747
302.731
302.712
302.734
302.695
302.703
302.706
302.72
302.75
302.766
302.819
345.14
344.452
343.683
343.215
342.855
342.562
342.573
342.717
342.793
342.925
342.977
342.942
342.932
342.797
342.847
342.821
342.888
343.456
343.967
344.812
338.679
338.124
337.47
337.069
336.788
336.527
336.56
336.696
336.788
336.876
336.935
336.898
336.899
336.782
336.833
336.803
336.835
337.345
337.754
338.465
332.399
331.955
331.42
331.115
330.886
330.673
330.696
330.801
330.896
330.98
331.034
330.976
331
330.916
330.936
330.915
330.931
331.36
331.681
332.263
326.291
325.945
325.526
325.287
325.101
324.941
324.969
325.024
325.12
325.2
325.253
325.183
325.22
325.141
325.17
325.147
325.155
325.493
325.773
326.214
320.322
320.055
319.749
319.552
319.421
319.302
319.329
319.354
319.447
319.496
319.557
319.492
319.524
319.468
319.483
319.466
319.493
319.716
319.964
320.289
314.451
314.265
314.048
313.908
313.821
313.747
313.749
313.784
313.831
313.868
313.929
313.882
313.884
313.871
313.881
313.857
313.902
314.005
314.203
314.453
308.635
308.536
308.41
308.314
308.282
308.234
308.233
308.24
308.267
308.293
308.351
308.315
308.317
308.317
308.331
308.316
308.336
308.373
308.498
308.667
302.878
302.851
302.826
302.779
302.764
302.77
302.754
302.767
302.768
302.776
302.803
302.782
302.788
302.781
302.783
302.794
302.799
302.797
302.84
302.902
346.312
345.654
344.89
344.315
344.049
343.857
343.839
343.71
343.761
343.907
343.956
343.884
343.871
343.858
343.838
343.875
344.161
344.668
345.257
345.926
339.692
339.146
338.508
338.048
337.818
337.654
337.65
337.551
337.608
337.726
337.768
337.695
337.699
337.681
337.68
337.697
337.945
338.361
338.858
339.414
333.282
332.829
332.302
331.929
331.753
331.617
331.594
331.539
331.595
331.678
331.709
331.659
331.674
331.655
331.65
331.662
331.882
332.203
332.649
333.085
327.016
326.666
326.251
325.944
325.804
325.697
325.689
325.643
325.714
325.756
325.773
325.719
325.771
325.743
325.749
325.753
325.929
326.19
326.568
326.899
320.888
320.607
320.306
320.061
319.957
319.891
319.867
319.85
319.906
319.917
319.936
319.885
319.944
319.91
319.947
319.93
320.077
320.278
320.581
320.838
314.837
314.654
314.443
314.263
314.194
314.172
314.138
314.136
314.155
314.166
314.19
314.157
314.189
314.18
314.211
314.184
314.292
314.457
314.655
314.855
308.878
308.774
308.649
308.558
308.509
308.507
308.472
308.472
308.469
308.477
308.505
308.471
308.488
308.487
308.502
308.517
308.54
308.654
308.794
308.899
302.976
302.928
302.906
302.867
302.842
302.852
302.838
302.843
302.848
302.84
302.852
302.842
302.838
302.836
302.853
302.863
302.863
302.899
302.941
302.984
347.516
346.812
346.146
345.604
345.24
345.116
344.945
344.799
344.816
344.782
345.001
344.95
344.853
344.809
344.941
345
345.384
345.852
346.454
347.162
340.706
340.147
339.576
339.12
338.808
338.752
338.603
338.467
338.499
338.467
338.646
338.621
338.531
338.472
338.611
338.646
338.981
339.386
339.891
340.475
334.104
333.69
333.199
332.82
332.556
332.541
332.418
332.313
332.359
332.286
332.434
332.444
332.353
332.301
332.433
332.461
332.735
333.066
333.474
333.952
327.667
327.376
326.961
326.673
326.428
326.438
326.353
326.269
326.335
326.252
326.356
326.381
326.285
326.266
326.383
326.381
326.619
326.919
327.183
327.588
321.371
321.17
320.84
320.627
320.434
320.441
320.396
320.349
320.394
320.324
320.379
320.397
320.334
320.34
320.409
320.411
320.61
320.857
321.009
321.364
315.177
315.051
314.85
314.673
314.55
314.539
314.516
314.517
314.522
314.475
314.505
314.499
314.451
314.472
314.517
314.527
314.676
314.864
314.951
315.223
309.079
309.004
308.897
308.793
308.724
308.705
308.683
308.719
308.69
308.694
308.709
308.666
308.642
308.653
308.696
308.696
308.788
308.902
308.968
309.127
303.029
303.015
302.978
302.936
302.924
302.902
302.909
302.915
302.9
302.914
302.917
302.905
302.895
302.886
302.907
302.913
302.939
302.992
303.012
303.047
348.724
347.99
347.294
346.637
346.327
346.094
345.854
345.845
345.724
345.655
345.91
345.966
345.991
345.885
345.999
346.157
346.486
346.946
347.589
348.297
341.746
341.129
340.565
339.97
339.736
339.524
339.366
339.359
339.256
339.189
339.425
339.5
339.493
339.413
339.518
339.632
339.941
340.312
340.846
341.423
334.983
334.47
334.031
333.513
333.303
333.161
333.019
333.051
332.97
332.909
333.116
333.181
333.164
333.099
333.166
333.287
333.542
333.831
334.276
334.758
328.382
327.991
327.631
327.205
327.038
326.943
326.808
326.87
326.795
326.729
326.937
326.972
326.969
326.908
326.968
327.088
327.267
327.474
327.846
328.252
321.919
321.641
321.361
321.014
320.904
320.841
320.726
320.81
320.742
320.678
320.849
320.856
320.852
320.821
320.887
320.974
321.108
321.243
321.543
321.853
315.58
315.398
315.208
314.949
314.853
314.84
314.738
314.815
314.761
314.724
314.849
314.845
314.839
314.799
314.878
314.94
315.027
315.115
315.333
315.544
309.312
309.212
309.119
308.944
308.877
308.879
308.846
308.865
308.858
308.817
308.903
308.887
308.887
308.859
308.917
308.957
309.012
309.047
309.203
309.308
303.1
303.082
303.057
302.999
302.969
302.969
302.968
302.965
302.974
302.952
302.988
302.972
302.973
302.971
302.985
303.003
303.026
303.025
303.081
303.119
349.612
348.934
348.026
347.326
347.108
346.861
346.701
346.664
346.487
346.587
346.815
346.764
346.85
346.609
346.754
346.976
347.28
347.841
348.401
348.985
342.441
341.898
341.14
340.541
340.384
340.18
340.03
340.028
339.86
339.939
340.184
340.139
340.187
339.996
340.111
340.311
340.566
341.002
341.511
341.977
335.537
335.102
334.466
333.943
333.848
333.689
333.545
333.578
333.42
333.517
333.717
333.682
333.698
333.562
333.669
333.853
334.027
334.375
334.808
335.183
328.833
328.483
327.983
327.534
327.474
327.371
327.243
327.285
327.136
327.238
327.423
327.364
327.347
327.298
327.39
327.52
327.65
327.914
328.258
328.58
322.288
322.001
321.629
321.273
321.258
321.196
321.058
321.125
320.988
321.059
321.226
321.173
321.14
321.128
321.218
321.288
321.405
321.594
321.823
322.115
315.842
315.648
315.392
315.132
315.132
315.099
314.983
315.038
314.937
314.962
315.105
315.06
315.022
315.05
315.112
315.154
315.245
315.373
315.525
315.733
309.477
309.353
309.223
309.071
309.067
309.038
308.969
309.02
308.942
308.963
309.032
309.027
308.968
309.023
309.066
309.076
309.124
309.208
309.3
309.402
303.176
303.136
303.081
303.026
303.036
303.012
302.993
303.028
302.994
302.987
303.024
303.031
303.003
303.021
303.04
303.04
303.059
303.082
303.113
303.135
)
;

boundaryField
{
    hotSide
    {
        type            fixedGradient;
        gradient        nonuniform List<scalar> 
400
(
390.245
390.172
392.351
396.735
403.126
411.23
420.731
431.343
442.823
454.982
467.676
480.798
494.272
508.045
522.083
536.368
550.893
565.657
580.66
595.897
372.113
372.122
374.538
379.304
386.178
394.815
404.855
415.979
427.93
440.509
453.572
467.013
480.758
494.761
508.993
523.443
538.109
553
568.121
583.473
359.782
360.055
362.716
367.704
374.778
383.6
393.812
405.095
417.19
429.896
443.066
456.593
470.404
484.455
498.718
513.186
527.861
542.754
557.873
573.223
352.932
353.637
356.559
361.637
368.672
377.375
387.434
398.558
410.497
423.056
436.083
449.472
463.148
477.063
491.194
505.532
520.081
534.849
549.847
565.078
350.192
351.416
354.635
359.787
366.713
375.185
384.946
395.743
407.35
419.58
432.286
445.361
458.73
472.35
486.196
500.263
514.555
529.079
543.845
558.857
350.012
351.781
355.344
360.637
367.526
375.824
385.316
395.782
407.019
418.853
431.146
443.797
456.74
469.938
483.375
497.051
510.973
525.151
539.595
554.31
351.151
353.457
357.41
362.94
369.921
378.185
387.537
397.775
408.708
420.17
432.034
444.215
456.661
469.353
482.292
495.49
508.962
522.724
536.787
551.159
352.704
355.514
359.883
365.732
372.935
381.323
390.701
400.863
411.611
422.782
434.256
445.966
457.89
470.037
482.434
495.112
508.101
521.422
535.089
549.108
353.998
357.245
362.015
368.224
375.737
384.379
393.935
404.176
414.88
425.867
437.023
448.305
459.731
471.349
483.222
495.405
507.939
520.852
534.16
547.866
354.532
358.096
363.19
369.723
377.558
386.505
396.327
406.758
417.538
428.459
439.405
450.361
461.389
472.585
484.043
495.84
508.028
520.639
533.685
547.168
353.969
357.676
362.942
369.676
377.738
386.926
396.986
407.623
418.542
429.509
440.403
451.228
462.079
473.08
484.349
495.972
508.009
520.49
533.428
546.822
352.183
355.821
361.059
367.808
375.923
385.197
395.366
406.132
417.192
428.309
439.356
450.333
461.326
472.459
483.845
495.574
507.704
520.27
533.284
546.747
349.305
352.662
357.681
364.269
372.277
381.495
391.663
402.492
413.703
425.071
436.465
447.856
459.292
470.861
482.654
494.75
507.205
520.055
533.319
547.001
345.747
348.653
353.315
359.644
367.484
376.618
386.787
397.716
409.146
420.866
432.735
444.691
456.739
468.92
481.295
493.923
506.855
520.128
533.765
547.776
342.213
344.552
348.797
354.862
362.578
371.71
381.987
393.129
404.88
417.03
429.428
441.988
454.677
467.504
480.499
493.705
507.163
520.911
534.975
549.369
339.735
341.448
345.274
351.132
358.826
368.082
378.592
390.051
402.19
414.794
427.703
440.816
454.079
467.479
481.028
494.757
508.7
522.894
537.369
552.14
339.747
340.835
344.274
349.984
357.729
367.173
377.955
389.736
402.231
415.217
428.532
442.069
455.766
469.598
483.568
497.697
512.02
526.572
541.384
556.475
344.031
344.582
347.67
353.217
360.946
370.469
381.38
393.315
405.981
419.155
432.676
446.437
460.373
474.453
488.672
503.049
517.612
532.398
547.438
562.749
354.182
354.38
357.14
362.39
369.853
379.137
389.835
401.588
414.106
427.171
440.625
454.36
468.308
482.43
496.717
511.178
525.835
540.72
555.858
571.263
370.636
370.689
373.138
377.925
384.82
393.491
403.584
414.773
426.791
439.429
452.529
465.981
479.711
493.674
507.849
522.233
536.839
551.686
566.788
582.151
)
;
    }
    coldSide
    {
        type            mixed;
        refValue        uniform 300;
        refGradient     uniform 0;
        valueFraction   uniform 0.991591;
        source          uniform 0;
        value           nonuniform List<scalar> 
400
(
300.017
300.017
300.017
300.017
300.018
300.018
300.019
300.019
300.02
300.021
300.021
300.022
300.023
300.023
300.024
300.024
300.025
300.025
300.026
300.027
300.017
300.017
300.017
300.017
300.017
300.018
300.019
300.019
300.019
300.02
300.021
300.021
300.022
300.023
300.023
300.024
300.025
300.025
300.026
300.026
300.016
300.016