/*--------------------------------*- C++ -*----------------------------------*\
| =========                 |                                                 |
| \\      /  F ield         | OpenFOAM: The Open Source CFD Toolbox           |
|  \\    /   O peration     | Version:  2212                                  |
|   \\  /    A nd           | Website:  www.openfoam.com                      |
|    \\/     M anipulation  |                                                 |
\*---------------------------------------------------------------------------*/
FoamFile
{
    version     2.0;
    format      ascii;
    arch        "LSB;label=32;scalar=64";
    class       volScalarField;
    location    "0";
    object      T;
}
// * * * * * * * * * * * * * * * * * * * * * * * * * * * * * * * * * * * * * //

dimensions      [0 0 0 1 0 0 0];

internalField   nonuniform List<scalar> 
3200
(
337.397
338.044
338.874
339.835
340.264
340.454
341.01
341.635
341.778
341.734
341.718
341.677
341.316
340.661
339.894
339.363
338.941
337.98
336.956
336.17
332.278
332.861
333.553
334.383
334.695
334.91
335.39
335.908
336.074
336.002
335.99
335.997
335.703
335.083
334.467
334.018
333.648
332.799
331.905
331.218
327.163
327.756
328.309
329
329.245
329.458
329.813
330.267
330.469
330.372
330.333
330.333
330.109
329.578
329.088
328.71
328.395
327.715
326.888
326.414
322.157
322.601
323.105
323.636
323.863
324.004
324.301
324.683
324.848
324.778
324.765
324.713
324.556
324.15
323.745
323.481
323.169
322.652
321.949
321.631
317.187
317.536
317.934
318.304
318.488
318.6
318.846
319.175
319.256
319.253
319.242
319.149
319.049
318.727
318.397
318.187
317.967
317.596
317.028
316.827
312.239
312.526
312.797
313.047
313.192
313.254
313.463
313.678
313.739
313.762
313.724
313.627
313.566
313.353
313.13
312.928
312.808
312.563
312.147
312.036
307.307
307.545
307.667
307.825
307.894
307.911
308.105
308.169
308.244
308.259
308.223
308.174
308.103
307.993
307.836
307.742
307.652
307.529
307.29
307.247
302.438
302.529
302.57
302.63
302.649
302.643
302.726
302.722
302.777
302.748
302.774
302.719
302.723
302.668
302.597
302.583
302.557
302.517
302.449
302.441
338.527
338.978
340.011
340.857
341.391
341.834
342.252
342.444
342.92
342.756
342.851
342.602
342.289
341.898
341.351
340.682
339.926
339.188
338.205
337.539
333.188
333.62
334.45
335.203
335.645
336.001
336.391
336.573
337.013
336.84
336.954
336.703
336.473
336.101
335.608
335.093
334.43
333.779
332.918
332.405
327.909
328.339
328.969
329.62
329.994
330.321
330.645
330.766
331.137
331.022
331.13
330.914
330.695
330.441
329.963
329.581
328.997
328.471
327.766
327.328
322.743
323.103
323.558
324.107
324.424
324.703
324.994
325.068
325.375
325.26
325.368
325.161
324.967
324.798
324.388
324.162
323.649
323.198
322.646
322.268
317.62
317.932
318.254
318.686
318.928
319.178
319.374
319.45
319.716
319.593
319.655
319.499
319.328
319.192
318.908
318.762
318.363
318.003
317.583
317.25
312.526
312.787
312.996
313.349
313.47
313.673
313.822
313.857
314.086
314.01
314.023
313.865
313.747
313.666
313.462
313.383
313.12
312.816
312.539
312.332
307.459
307.689
307.768
308.01
308.055
308.204
308.31
308.305
308.456
308.438
308.411
308.314
308.237
308.191
308.088
308.055
307.887
307.662
307.51
307.429
302.482
302.576
302.591
302.69
302.683
302.748
302.79
302.777
302.822
302.831
302.807
302.793
302.738
302.728
302.72
302.705
302.651
302.564
302.538
302.494
339.65
340.419
341.119
342.086
342.669
343.218
343.867
344.061
344.027
344.187
344.298
344.159
343.634
343.311
342.708
341.928
341.357
340.337
339.479
338.402
334.177
334.886
335.452
336.236
336.737
337.211
337.788
337.978
337.935
338.032
338.232
338.046
337.571
337.33
336.799
336.125
335.649
334.741
334.073
333.132
328.803
329.423
329.881
330.472
330.922
331.342
331.82
331.976
331.956
332.018
332.25
331.973
331.607
331.388
330.958
330.416
329.997
329.21
328.697
327.939
323.485
324.033
324.379
324.863
325.198
325.562
325.96
326.042
326.071
326.066
326.296
326.03
325.717
325.55
325.204
324.764
324.453
323.821
323.401
322.803
318.173
318.698
318.906
319.262
319.559
319.821
320.148
320.233
320.257
320.241
320.393
320.139
319.897
319.779
319.552
319.214
318.953
318.483
318.152
317.704
312.912
313.352
313.452
313.71
313.969
314.117
314.374
314.421
314.438
314.496
314.578
314.348
314.174
314.115
313.93
313.678
313.512
313.145
312.949
312.636
307.731
308.002
308.06
308.246
308.4
308.487
308.603
308.663
308.66
308.706
308.764
308.605
308.5
308.474
308.313
308.213
308.129
307.893
307.746
307.592
302.56
302.686
302.694
302.774
302.811
302.862
302.873
302.903
302.921
302.917
302.953
302.878
302.832
302.829
302.775
302.734
302.723
302.658
302.592
302.547
340.948
341.995
342.56
343.513
344.27
345.086
345.368
345.594
345.669
345.878
345.854
345.763
345.356
344.813
344.175
343.447
342.656
341.886
340.982
339.761
335.303
336.177
336.669
337.47
338.159
338.821
339.117
339.315
339.345
339.493
339.504
339.388
339.101
338.576
338.081
337.438
336.758
336.121
335.335
334.282
329.745
330.422
330.822
331.571
332.141
332.709
332.944
333.108
333.118
333.275
333.248
333.168
332.967
332.448
332.078
331.519
330.971
330.405
329.756
328.862
324.202
324.756
325.113
325.76
326.193
326.62
326.842
326.959
327.001
327.163
327.064
327.042
326.886
326.438
326.152
325.69
325.248
324.739
324.22
323.479
318.732
319.156
319.478
319.975
320.329
320.606
320.835
320.894
320.95
321.092
320.995
320.95
320.847
320.527
320.267
319.898
319.632
319.152
318.786
318.169
313.314
313.65
313.867
314.25
314.443
314.652
314.827
314.862
314.954
315.027
314.959
314.886
314.857
314.66
314.427
314.184
314.07
313.627
313.362
312.936
307.954
308.169
308.316
308.56
308.671
308.741
308.89
308.907
308.975
309.022
308.968
308.895
308.92
308.791
308.631
308.516
308.449
308.139
308.011
307.787
302.663
302.751
302.801
302.864
302.891
302.919
302.978
302.988
302.996
303.014
303.01
302.972
302.996
302.944
302.905
302.855
302.84
302.732
302.698
302.63
342.182
343.178
344.028
344.947
345.574
346.403
346.777
346.787
347.186
347.417
347.602
347.376
346.852
346.299
345.721
345.069
344.168
343.266
342.187
341.161
336.306
337.212
337.901
338.713
339.253
339.992
340.297
340.26
340.635
340.831
340.968
340.828
340.303
339.857
339.334
338.841
338.041
337.229
336.331
335.489
330.587
331.359
331.876
332.582
333.055
333.684
333.959
333.854
334.179
334.371
334.427
334.328
333.927
333.527
333.09
332.658
332.047
331.288
330.584
329.906
324.875
325.554
325.926
326.497
326.94
327.448
327.679
327.587
327.862
328.03
328.025
327.959
327.614
327.336
326.946
326.564
326.082
325.472
324.934
324.36
319.277
319.79
320.056
320.5
320.888
321.28
321.469
321.408
321.613
321.758
321.736
321.672
321.452
321.199
320.912
320.591
320.221
319.717
319.324
318.843
313.718
314.117
314.267
314.58
314.927
315.171
315.303
315.31
315.412
315.501
315.471
315.439
315.325
315.122
314.918
314.642
314.435
313.995
313.797
313.415
308.213
308.475
308.506
308.732
308.976
309.101
309.163
309.207
309.247
309.266
309.274
309.266
309.23
309.074
308.941
308.799
308.656
308.385
308.29
308.028
302.743
302.842
302.841
302.918
303.007
303.036
303.074
303.08
303.101
303.1
303.096
303.106
303.096
303.029
302.985
302.98
302.9
302.803
302.804
302.693
343.718
344.667
345.46
346.25
347.23
347.77
348.274
348.572
348.851
349.253
349.112
348.933
348.427
347.734
347.251
346.542
345.699
344.777
343.748
342.49
337.681
338.473
339.084
339.82
340.669
341.106
341.557
341.816
342.09
342.472
342.327
342.165
341.704
341.078
340.657
340.084
339.369
338.55
337.722
336.632
331.705
332.377
332.825
333.523
334.208
334.578
334.917
335.207
335.453
335.808
335.674
335.495
335.1
334.561
334.177
333.768
333.174
332.429
331.746
330.828
325.809
326.367
326.662
327.317
327.849
328.123
328.451
328.709
328.908
329.19
329.021
328.939
328.613
328.186
327.805
327.559
327.046
326.406
325.856
325.125
319.979
320.414
320.671
321.162
321.588
321.794
322.077
322.267
322.39
322.617
322.481
322.424
322.193
321.886
321.528
321.409
320.992
320.46
320.07
319.487
314.255
314.52
314.719
315.066
315.395
315.543
315.758
315.894
315.938
316.072
316.015
315.974
315.849
315.598
315.356
315.306
314.989
314.584
314.345
313.902
308.572
308.655
308.818
308.998
309.24
309.338
309.465
309.537
309.563
309.65
309.623
309.587
309.517
309.37
309.208
309.168
308.991
308.73
308.619
308.363
302.85
302.895
302.958
302.992
303.109
303.128
303.179
303.18
303.19
303.251
303.224
303.232
303.199
303.155
303.07
303.071
302.995
302.933
302.9
302.819
345.1
345.993
346.827
347.835
348.654
349.37
349.735
350.102
350.364
350.743
350.641
350.246
349.852
349.447
348.657
348.144
347.151
346.22
345.244
343.897
338.869
339.638
340.37
341.19
341.883
342.509
342.835
343.152
343.334
343.709
343.596
343.299
342.893
342.584
341.925
341.448
340.626
339.844
338.945
337.841
332.725
333.373
334.01
334.658
335.228
335.796
336.048
336.321
336.433
336.802
336.658
336.435
336.101
335.841
335.281
334.877
334.223
333.574
332.768
331.867
326.655
327.18
327.707
328.212
328.642
329.172
329.408
329.593
329.656
329.986
329.816
329.686
329.392
329.205
328.746
328.453
327.892
327.397
326.703
325.982
320.662
321.075
321.474
321.862
322.17
322.635
322.8
322.943
322.974
323.253
323.074
323.044
322.803
322.651
322.267
322.065
321.641
321.268
320.704
320.145
314.73
314.995
315.284
315.596
315.784
316.155
316.27
316.371
316.369
316.59
316.445
316.446
316.284
316.093
315.859
315.71
315.484
315.182
314.764
314.372
308.84
308.972
309.152
309.37
309.442
309.687
309.775
309.79
309.808
309.969
309.851
309.886
309.796
309.665
309.492
309.412
309.318
309.106
308.86
308.608
302.945
303.016
303.048
303.15
303.147
303.229
303.29
303.272
303.275
303.352
303.304
303.317
303.28
303.245
303.171
303.152
303.121
303.054
302.964
302.878
346.241
347.361
348.442
349.16
350.07
350.854
351.208
351.645
351.974
352.223
352.01
351.805
351.352
350.758
350.323
349.49
348.574
347.505
346.515
345.422
339.866
340.83
341.73
342.336
343.181
343.802
344.063
344.468
344.788
345
344.771
344.599
344.175
343.724
343.379
342.665
341.828
340.923
340.047
339.118
333.575
334.401
335.107
335.652
336.361
336.894
337.064
337.398
337.722
337.901
337.658
337.544
337.191
336.843
336.526
335.929
335.159
334.479
333.719
332.934
327.334
328.039
328.567
329.055
329.683
330.068
330.161
330.423
330.73
330.895
330.641
330.589
330.284
330.033
329.737
329.227
328.603
328.109
327.464
326.846
321.171
321.713
322.104
322.615
323.023
323.279
323.409
323.595
323.786
323.98
323.705
323.676
323.46
323.295
323.03
322.599
322.128
321.812
321.32
320.824
315.091
315.503
315.745
316.137
316.39
316.548
316.691
316.812
316.937
317.09
316.877
316.869
316.693
316.623
316.395
316.081
315.78
315.603
315.235
314.917
309.044
309.334
309.459
309.696
309.792
309.914
310.039
310.075
310.129
310.235
310.102
310.104
309.971
309.973
309.812
309.654
309.431
309.372
309.144
308.991
303.008
303.131
303.167
303.251
303.263
303.311
303.368
303.393
303.375
303.4
303.38
303.393
303.328
303.36
303.279
303.238
303.139
303.132
303.063
303.017
347.399
348.255
349.414
350.513
351.255
352.381
352.692
352.933
353.364
353.579
353.474
353.077
353.006
352.482
351.64
350.993
349.954
348.858
347.45
346.784
340.854
341.586
342.593
343.538
344.189
345.15
345.367
345.549
345.926
346.168
346.045
345.742
345.642
345.2
344.454
343.947
343.052
342.042
340.813
340.305
334.413
335.081
335.867
336.68
337.2
338.037
338.193
338.344
338.648
338.847
338.753
338.528
338.438
338.038
337.423
337.008
336.288
335.386
334.382
333.944
328.091
328.653
329.201
329.857
330.355
331.006
331.116
331.23
331.525
331.663
331.591
331.408
331.296
330.985
330.486
330.181
329.583
328.805
328.023
327.636
321.77
322.245
322.607
323.133
323.53
324.051
324.12
324.209
324.439
324.526
324.445
324.319
324.215
324.036
323.621
323.404
322.92
322.323
321.728
321.417
315.51
315.875
316.101
316.504
316.763
317.164
317.2
317.249
317.437
317.517
317.376
317.296
317.24
317.162
316.823
316.691
316.316
315.907
315.493
315.254
309.329
309.495
309.626
309.916
310.052
310.322
310.284
310.344
310.497
310.553
310.409
310.345
310.351
310.297
310.066
310.012
309.798
309.531
309.31
309.159
303.141
303.182
303.218
303.329
303.382
303.479
303.429
303.459
303.521
303.548
303.47
303.456
303.464
303.451
303.37
303.365
303.267
303.216
303.114
303.051
348.444
349.515
350.624
351.394
352.602
353.551
353.983
354.273
354.64
354.881
354.527
354.545
354.25
353.748
352.866
352.31
351.163
350.143
348.679
348.129
341.765
342.685
343.587
344.292
345.326
346.156
346.49
346.751
347.077
347.319
346.913
346.95
346.732
346.297
345.521
345.114
344.076
343.203
341.934
341.471
335.176
335.957
336.661
337.274
338.173
338.88
339.091
339.341
339.629
339.871
339.443
339.462
339.34
338.945
338.337
338.008
337.131
336.372
335.285
334.91
328.629
329.299
329.859
330.34
331.106
331.682
331.83
331.997
332.292
332.535
332.127
332.103
332.045
331.733
331.288
330.903
330.238
329.673
328.757
328.453
322.155
322.741
323.171
323.532
324.127
324.565
324.669
324.772
325.04
325.256
324.9
324.819
324.843
324.614
324.298
323.968
323.471
323.026
322.234
322.063
315.79
316.21
316.563
316.78
317.21
317.506
317.577
317.643
317.837
318.03
317.749
317.643
317.7
317.576
317.365
317.057
316.741
316.418
315.841
315.745
309.478
309.728
309.978
310.053
310.324
310.492
310.51
310.547
310.684
310.852
310.679
310.559
310.627
310.52
310.413
310.218
310.036
309.874
309.527
309.458
303.174
303.258
303.355
303.362
303.47
303.5
303.539
303.537
303.589
303.632
303.594
303.518
303.56
303.501
303.477
303.427
303.367
303.299
303.176
303.167
349.536
350.734
351.504
352.635
353.634
354.45
355.155
355.423
355.987
356.142
356.074
355.837
355.735
355.005
354.315
353.544
352.447
351.28
350.146
349.12
342.669
343.707
344.362
345.29
346.185
346.959
347.499
347.756
348.239
348.356
348.306
348.077
348.041
347.37
346.766
346.113
345.157
344.172
343.216
342.403
335.889
336.796
337.306
338.071
338.872
339.542
339.991
340.207
340.629
340.694
340.656
340.462
340.481
339.845
339.38
338.82
338.032
337.17
336.427
335.776
329.249
329.979
330.391
330.987
331.711
332.211
332.567
332.791
333.113
333.161
333.106
332.935
332.987
332.465
332.102
331.61
330.975
330.285
329.696
329.202
322.687
323.271
323.534
324.015
324.589
324.98
325.237
325.42
325.681
325.699
325.676
325.521
325.562
325.162
324.907
324.477
323.991
323.494
323.011
322.69
316.164
316.572
316.754
317.102
317.497
317.804
318.028
318.135
318.321
318.32
318.305
318.19
318.211
317.931
317.791
317.438
317.076
316.736
316.384
316.166
309.678
309.929
310.034
310.255
310.495
310.686
310.857
310.875
310.998
310.985
311.016
310.899
310.935
310.716
310.653
310.448
310.217
310.026
309.784
309.68
303.243
303.336
303.368
303.429
303.507
303.576
303.636
303.658
303.672
303.691
303.673
303.647
303.67
303.585
303.557
303.509
303.419
303.357
303.276
303.222
350.415
351.574
352.588
353.834
354.887
355.583
356.22
356.606
357.138
357.331
357.227
357.062
356.928
356.311
355.297
354.525
353.56
352.414
351.648
350.341
343.461
344.497
345.26
346.367
347.305
347.845
348.369
348.73
349.242
349.385
349.337
349.174
349.067
348.517
347.659
347
346.122
345.161
344.523
343.437
336.605
337.487
338.023
339.027
339.811
340.295
340.706
341.019
341.432
341.611
341.546
341.425
341.314
340.841
340.094
339.613
338.848
338.061
337.507
336.63
329.763
330.522
330.977
331.792
332.461
332.842
333.15
333.409
333.736
333.938
333.868
333.803
333.691
333.252
332.703
332.32
331.682
331.012
330.573
329.862
323.012
323.674
324
324.653
325.155
325.444
325.675
325.952
326.134
326.297
326.258
326.181
326.14
325.746
325.339
325.063
324.588
324.047
323.689
323.192
316.347
316.885
317.134
317.535
317.895
318.131
318.306
318.576
318.64
318.73
318.737
318.644
318.608
318.329
318.093
317.893
317.559
317.14
316.883
316.548
309.774
310.129
310.295
310.501
310.696
310.888
310.971
311.183
311.2
311.245
311.227
311.176
311.139
310.969
310.879
310.745
310.545
310.305
310.09
309.947
303.265
303.391
303.464
303.518
303.577
303.648
303.676
303.734
303.763
303.76
303.756
303.759
303.737
303.677
303.652
303.597
303.519
303.447
303.382
303.324
351.317
352.652
353.525
354.78
355.818
356.707
357.28
357.813
358.06
358.324
358.303
358.184
357.953
357.28
356.536
355.772
354.658
353.6
352.449
351.226
344.268
345.359
346.083
347.192
348.095
348.818
349.367
349.807
350.015
350.203
350.218
350.088
349.967
349.376
348.708
348.083
347.133
346.213
345.215
344.2
337.303
338.197
338.791
339.718
340.525
341.084
341.592
341.877
342.113
342.238
342.276
342.183
342.098
341.61
341.007
340.515
339.72
338.915
338.092
337.252
330.428
331.104
331.61
332.329
333.049
333.474
333.862
334.119
334.269
334.366
334.423
334.353
334.315
333.903
333.435
333.034
332.418
331.722
331.039
330.316
323.592
324.087
324.494
325.029
325.628
325.939
326.272
326.46
326.527
326.607
326.656
326.595
326.63
326.311
325.935
325.603
325.141
324.645
324.055
323.482
316.822
317.152
317.432
317.842
318.269
318.509
318.728
318.881
318.912
318.906
318.986
318.94
318.999
318.766
318.513
318.233
317.926
317.565
317.142
316.726
310.053
310.292
310.477
310.691
310.952
311.11
311.255
311.341
311.329
311.327
311.358
311.339
311.394
311.245
311.088
310.877
310.753
310.552
310.267
310.039
303.376
303.446
303.508
303.565
303.66
303.738
303.782
303.788
303.795
303.804
303.819
303.809
303.833
303.77
303.721
303.625
303.609
303.536
303.423
303.346
352.043
353.397
354.374
355.603
356.787
357.637
358.292
358.758
359.074
359.296
359.174
359.191
358.682
358.26
357.64
356.737
355.969
354.584
353.232
351.96
344.849
346.081
346.81
347.861
348.976
349.66
350.26
350.622
350.892
351.103
350.961
351.03
350.529
350.202
349.637
348.944
348.245
347.049
345.893
344.776
337.77
338.837
339.377
340.242
341.243
341.8
342.361
342.598
342.833
343.018
342.869
342.993
342.577
342.244
341.809
341.225
340.642
339.623
338.646
337.739
330.807
331.662
332.061
332.771
333.607
334.067
334.559
334.68
334.877
335.011
334.911
335.013
334.693
334.411
334.049
333.597
333.12
332.284
331.441
330.763
323.864
324.591
324.821
325.398
326.061
326.393
326.818
326.859
327.06
327.092
327.099
327.14
326.901
326.699
326.384
326.048
325.62
325.01
324.345
323.883
316.998
317.515
317.699
318.102
318.571
318.794
319.102
319.12
319.306
319.31
319.305
319.369
319.2
319.08
318.828
318.605
318.218
317.824
317.331
317.035
310.196
310.489
310.62
310.827
311.18
311.266
311.44
311.453
311.568
311.579
311.544
311.607
311.485
311.444
311.297
311.175
310.914
310.714
310.395
310.227
303.411
303.503
303.557
303.63
303.751
303.784
303.83
303.847
303.878
303.87
303.872
303.852
303.861
303.829
303.795
303.723
303.65
303.589
303.477
303.428
353.088
354.083
355.17
356.399
357.659
358.258
359.105
359.496
359.789
360.032
360.157
359.849
359.531
358.911
358.251
357.662
356.371
355.451
354.171
352.869
345.762
346.652
347.522
348.597
349.691
350.19
350.917
351.252
351.502
351.719
351.869
351.551
351.298
350.789
350.222
349.724
348.606
347.845
346.686
345.581
338.518
339.328
339.984
340.883
341.795
342.251
342.857
343.145
343.34
343.529
343.692
343.394
343.188
342.778
342.362
341.906
340.948
340.357
339.353
338.42
331.371
332.083
332.565
333.265
334.034
334.43
334.893
335.176
335.283
335.48
335.57
335.379
335.182
334.846
334.576
334.136
333.334
332.921
332.127
331.339
324.315
324.935
325.25
325.761
326.36
326.667
327.007
327.297
327.328
327.504
327.537
327.452
327.226
326.976
326.824
326.454
325.809
325.59
324.946
324.327
317.326
317.806
317.988
318.355
318.797
318.992
319.228
319.461
319.494
319.585
319.643
319.571
319.359
319.153
319.112
318.846
318.394
318.25
317.806
317.384
310.418
310.708
310.752
310.979
311.3
311.381
311.553
311.7
311.697
311.758
311.775
311.707
311.579
311.455
311.468
311.283
311.048
310.942
310.696
310.435
303.49
303.598
303.597
303.657
303.779
303.816
303.883
303.934
303.916
303.949
303.939
303.905
303.855
303.822
303.829
303.778
303.697
303.652
303.587
303.487
353.402
354.702
355.921
357.054
358.271
358.956
359.839
360.338
360.61
360.975
360.95
360.765
360.206
359.69
358.982
358.366
357.124
356.299
354.636
353.54
346.058
347.138
348.222
349.153
350.213
350.78
351.529
351.999
352.227
352.517
352.556
352.37
351.905
351.469
350.827
350.306
349.219
348.56
347.09
346.15
338.779
339.702
340.623
341.383
342.262
342.743
343.352
343.768
343.979
344.249
344.26
344.122
343.719
343.436
342.822
342.351
341.426
340.91
339.672
338.889
331.587
332.421
333.138
333.721
334.444
334.831
335.274
335.659
335.822
336.057
336.036
335.951
335.623
335.377
334.922
334.512
333.73
333.341
332.338
331.708
324.477
325.168
325.703
326.088
326.754
326.984
327.342
327.592
327.751
327.951
327.956
327.852
327.635
327.407
327.084
326.762
326.128
325.87
325.106
324.582
317.465
317.984
318.328
318.57
319.104
319.246
319.528
319.653
319.806
319.898
319.893
319.846
319.661
319.525
319.326
319.102
318.604
318.446
317.915
317.53
310.488
310.807
310.964
311.116
311.475
311.543
311.721
311.75
311.895
311.941
311.902
311.898
311.76
311.716
311.601
311.475
311.161
311.034
310.773
310.564
303.509
303.624
303.671
303.715
303.842
303.849
303.923
303.921
304
303.988
303.986
303.989
303.929
303.933
303.889
303.854
303.732
303.686
303.622
303.533
353.884
355.158
356.215
357.557
358.712
359.711
360.392
360.982
361.259
361.608
361.467
361.495
360.941
360.412
359.759
358.861
357.951
356.614
355.148
354.032
346.468
347.524
348.416
349.6
350.582
351.482
352.096
352.546
352.815
353.139
352.96
353.012
352.486
352.082
351.531
350.746
349.986
348.802
347.567
346.592
339.146
340.022
340.786
341.762
342.558
343.354
343.881
344.208
344.512
344.752
344.553
344.643
344.206
343.893
343.369
342.724
342.103
341.113
340.093
339.244
331.947
332.604
333.276
334.024
334.663
335.346
335.744
336.037
336.258
336.482
336.332
336.406
336.024
335.818
335.343
334.781
334.344
333.516
332.693
331.962
324.837
325.314
325.808
326.355
326.854
327.418
327.748
327.929
328.1
328.314
328.169
328.276
327.924
327.793
327.399
326.964
326.632
325.99
325.334
324.799
317.725
318.044
318.414
318.787
319.151
319.535
319.781
319.913
320.043
320.212
320.092
320.183
319.894
319.821
319.516
319.246
318.973
318.506
318.062
317.686
310.6
310.814
311.03
311.262
311.492
311.689
311.847
311.935
312.008
312.126
312.081
312.153
311.928
311.88
311.697
311.568
311.398
311.082
310.845
310.618
303.556
303.617
303.686
303.778
303.851
303.913
303.962
303.982
304.024
304.057
304.031
304.06
303.988
303.975
303.914
303.869
303.806
303.711
303.646
303.568
354.29
355.515
356.881
357.962
359.078
360.24
360.974
361.524
361.752
362.123
362.131
361.895
361.519
361.025
360.244
359.13
358.419
357.128
355.644
354.522
346.833
347.79
349.015
349.918
350.933
351.921
352.551
352.977
353.161
353.545
353.534
353.367
353.012
352.6
351.919
350.936
350.333
349.251
347.995
347.044
339.468
340.233
341.269
342.023
342.87
343.723
344.208
344.595
344.727
345.087
345.057
344.938
344.622
344.298
343.727
342.901
342.395
341.49
340.456
339.62
332.172
332.761
333.619
334.205
334.953
335.648
335.971
336.35
336.437
336.724
336.722
336.627
336.328
336.094
335.602
335.011
334.536
333.828
333.017
332.32
324.959
325.39
326.036
326.487
327.102
327.659
327.852
328.172
328.238
328.486
328.491
328.432
328.151
327.991
327.591
327.172
326.762
326.243
325.593
325.089
317.797
318.077
318.579
318.859
319.317
319.705
319.864
320.07
320.13
320.308
320.309
320.274
320.065
319.97
319.679
319.396
319.06
318.727
318.205
317.878
310.671
310.816
311.142
311.297
311.63
311.814
311.904
312.011
312.107
312.175
312.212
312.153
312.032
311.931
311.772
311.644
311.446
311.227
310.921
310.717
303.571
303.633
303.724
303.786
303.915
303.976
304.009
304.03
304.056
304.057
304.078
304.056
304.027
303.994
303.927
303.909
303.835
303.755
303.673
303.607
354.521
355.729
357.063
358.326
359.384
360.855
361.444
361.921
362.341
362.512
362.535
362.278
361.77
361.432
360.696
359.796
358.741
357.403
355.914
354.949
347.064
348.001
349.185
350.278
351.194
352.443
352.932
353.355
353.731
353.874
353.909
353.698
353.202
352.965
352.299
351.484
350.608
349.49
348.178
347.419
339.691
340.376
341.43
342.371
343.15
344.123
344.526
344.912
345.236
345.329
345.398
345.205
344.81
344.592
344.022
343.311
342.605
341.696
340.551
339.956
332.351
332.925
333.762
334.518
335.182
335.941
336.27
336.585
336.815
336.899
336.998
336.862
336.504
336.324
335.876
335.281
334.678
333.991
333.029
332.595
325.108
325.515
326.132
326.742
327.258
327.846
328.084
328.338
328.52
328.581
328.699
328.603
328.331
328.164
327.775
327.358
326.867
326.312
325.637
325.274
317.939
318.198
318.614
319.064
319.431
319.862
320.007
320.18
320.286
320.384
320.449
320.406
320.192
320.109
319.789
319.514
319.121
318.693
318.302
318.004
310.79
310.936
311.147
311.414
311.636
311.92
312.01
312.106
312.14
312.227
312.275
312.248
312.101
312.053
311.855
311.67
311.449
311.186
310.98
310.817
303.609
303.664
303.743
303.817
303.896
303.993
304.051
304.052
304.059
304.085
304.115
304.094
304.05
304.029
303.985
303.925
303.845
303.737
303.698
303.626
354.846
356.006
357.569
358.633
359.499
360.819
361.337
362.184
362.809
362.766
362.965
362.709
362.222
361.738
360.925
360.056
359.034
357.693
356.315
355.078
347.333
348.25
349.612
350.501
351.291
352.436
352.843
353.524
354.084
354.086
354.304
353.997
353.644
353.217
352.522
351.746
350.84
349.721
348.544
347.502
339.846
340.65
341.731
342.536
343.224
344.148
344.493
345.089
345.505
345.547
345.742
345.443
345.144
344.812
344.237
343.539
342.748
341.893
340.897
340.002
332.435
333.168
334.001
334.687
335.202
335.986
336.259
336.782
337.041
337.137
337.246
337.008
336.74
336.519
336.059
335.465
334.753
334.152
333.332
332.63
325.13
325.728
326.385
326.924
327.293
327.892
328.095
328.492
328.72
328.844
328.834
328.676
328.459
328.34
327.938
327.504
326.93
326.442
325.857
325.316
317.875
318.321
318.856
319.216
319.464
319.885
320.048
320.276
320.436
320.571
320.527
320.413
320.28
320.205
319.884
319.636
319.214
318.87
318.464
318.039
310.668
310.977
311.329
311.504
311.669
311.916
312.031
312.153
312.232
312.351
312.304
312.247
312.138
312.104
311.94
311.814
311.52
311.349
311.094
310.814
303.57
303.666
303.81
303.832
303.909
303.985
304.021
304.069
304.095
304.154
304.121
304.09
304.065
304.054
304.001
303.966
303.857
303.801
303.727
303.636
)
;

boundaryField
{
    hotSide
    {
        type            fixedGradient;
        gradient        nonuniform List<scalar> 
400
(
411.571
427.812
443.791
459.438
474.68
489.445
503.662
517.262
530.177
542.342
553.694
564.174
573.729
582.307
589.863
596.359
601.759
606.035
609.167
611.137
422.313
439.076
455.575
471.735
487.482
502.741
517.44
531.507
544.871
557.465
569.224
580.087
589.998
598.905
606.761
613.525
619.16
623.638
626.935
629.036
431.9
449.144
466.122
482.755
498.969
514.687
529.833
544.333
558.115
571.108
583.247
594.469
604.715
613.931
622.069
629.087
634.946
639.617
643.075
645.305
440.271
457.952
475.364
492.429
509.068
525.204
540.758
555.654
569.819
583.18
595.669
607.221
617.776
627.28
635.681
642.935
649.005
653.859
657.472
659.826
447.376
465.445
483.244
500.694
517.714
534.224
550.144
565.397
579.906
593.599
606.404
618.257
629.094
638.859
647.501
654.975
661.24
666.264
670.023
672.497
453.176
471.582
489.718
507.503
524.855
541.692
557.934
573.5
588.313
602.299
615.385
627.504
638.593
648.593
657.452
665.123
671.566
676.748
680.642
683.229
457.641
476.33
494.75
512.818
530.451
547.566
564.081
579.915
594.989
609.226
622.554
634.904
646.211
656.416
665.466
673.312
679.914
685.238
689.255
691.948
460.751
479.667
498.315
516.611
534.472
551.814
568.552
584.605
599.893
614.339
627.868
640.411
651.902
662.281
671.493
679.49
686.23
691.677
695.805
698.594
462.497
481.581
500.399
518.868
536.901
554.415
571.324
587.546
603.001
617.609
631.296
643.992
655.63
666.149
675.494
683.615
690.47
696.024
700.248
703.122
462.875
482.068
500.997
519.58
537.728
555.359
572.385
588.725
604.296
619.02
632.821
645.628
657.375
667.999
677.445
685.662
692.609
698.249
702.553
705.501
461.892
481.133
500.114
518.75
536.956
554.646
571.735
588.139
603.776
618.567
632.436
645.312
657.128
667.82
677.335
685.62
692.633
698.338
702.706
705.714
459.562
478.789
497.761
516.392
534.596
552.288
569.383
585.797
601.448
616.257
630.148
643.049
654.892
665.617
675.166
683.489
690.543
696.291
700.704
703.761
455.906
475.059
493.96
512.525
530.668
548.305
565.35
581.719
597.332
612.109
625.974
638.855
650.687
661.405
670.955
679.286
686.354
692.122
696.563
699.653
450.954
469.97
488.74
507.179
525.202
542.725
559.664
575.935
591.457
606.152
619.944
632.762
644.539
655.214
664.73
673.037
680.093
685.859
690.308
693.418
444.741
463.56
482.138
500.392
518.237
535.589
552.366
568.484
583.864
598.427
612.1
624.81
636.492
647.085
656.533
664.787
671.802
677.544
681.983
685.097
437.309
455.872
474.2
492.21
509.819
526.945
543.506
559.419
574.605
588.988
602.494
615.054
626.601
637.075
646.421
654.59
661.539
667.233
671.642
674.746
428.708
446.958
464.978
482.688
500.007
516.852
533.142
548.798
563.742
577.898
591.193
603.559
614.931
625.25
634.46
642.515
649.372
654.996
659.358
662.436
418.995
436.876
454.534
471.89
488.864
505.376
521.346
536.696
551.349
565.232
578.273
590.404
601.563
611.691
620.735
628.647
635.386
640.918
645.214
648.253
408.234
425.694
442.938
459.888
476.466
492.594
508.195
523.192
537.509
551.076
563.821
575.68
586.589
596.493
605.34
613.082
619.679
625.098
629.31
632.297
396.494
413.485
430.265
446.761
462.896
478.594
493.78
508.379
522.318
535.527
547.938
559.487
570.114
579.762
588.382
595.928
602.361
607.647
611.761
614.681
)
;
    }
    coldSide
    {
        type            mixed;
        refValue        uniform 300;
        refGradient     uniform 0;
        valueFraction   uniform 0.991591;
        source          uniform 0;
        value           nonuniform List<scalar> 
400
(
300.02
300.021
300.022
300.022
300.023
300.024
300.025
300.025
300.026
300.027
300.027
300.027
300.028
300.029
300.029
300.03
300.03
300.03
300.03
300.03
300.021
300.022
300.023
300.023
300.024
300.024
300.025
300.026
300.027
300.027
300.028
300.029
300.029
300.029
300.03
300.03
300.03
300.031
300.031
300.031
300.022
300.022
300.023