/*--------------------------------*- C++ -*----------------------------------*\
| =========                 |                                                 |
| \\      /  F ield         | OpenFOAM: The Open Source CFD Toolbox           |
|  \\    /   O peration     | Version:  2212                                  |
|   \\  /    A nd           | Website:  www.openfoam.com                      |
|    \\/     M anipulation  |                                                 |
\*---------------------------------------------------------------------------*/
FoamFile
{
    version     2.0;
    format      ascii;
    arch        "LSB;label=32;scalar=64";
    class       volScalarField;
    location    "0";
    object      relativeErrorField;
}
// * * * * * * * * * * * * * * * * * * * * * * * * * * * * * * * * * * * * * //

dimensions      [0 0 0 1 0 0 0];

internalField   nonuniform List<scalar> 
3200
(
5.71703e-05
0.00392326
0.00205267
0.00438299
0.00498604
0.00676884
0.00429816
0.00342696
0.00439727
0.00270904
0.0064215
0.00741503
0.00635224
0.00328579
0.00129453
0.00283315
0.00341935
0.00037885
0.00143395
0.00463005
4.47902e-05
0.00153836
0.00182935
0.00330212
0.00604168
0.00356098
0.00565516
0.00439475
0.00349817
0.00371521
0.00611743
0.00574082
0.000933605
0.000672288
0.00526332
0.000403644
0.00107533
0.00150299
4.40895e-05
0.0010055
0.00279331
0.0033206
0.00115108
0.00306969
0.00480015
0.00398452
0.00393309
0.00512289
0.00259005
0.00635257
0.00457728
0.000543012
0.00305625
0.00195174
0.00462857
0.002198
0.0014865
0.00488246
0.00257684
0.00618139
0.000599131
0.00128296
0.00492467
0.00588707
0.00516225
0.00421403
0.00331065
0.0036286
0.00243692
0.000247548
0.00058449
0.00378145
0.00432797
0.00419577
0.000376208
0.00396708
0.00234759
0.000141277
0.00181183
0.00140421
0.000348149
0.00359679
0.00232589
0.00166581
0.00308413
0.000913485
0.000241364
0.00168205
0.00165477
0.00282403
0.00336767
0.000177638
0.00480993
0.00499835
0.00145342
0.0019073
0.00165467
0.000340364
4.55285e-05
0.00143671
0.00155592
0.00185921
0.000121402
0.00140475
0.00197082
0.00246113
0.00395106
0.00303426
0.00117895
0.00399474
0.00413787
0.000652946
0.000613927
0.00088465
0.00203892
0.00173783
0.00361598
9.13389e-05
0.000445439
8.39087e-05
0.000715623
0.000497346
0.00291274
0.000528393
0.00154326
0.00196037
0.000883356
0.0025965
0.00169059
0.000508866
0.0022665
0.00238336
0.00156258
7.52165e-05
0.00207659
0.000333038
0.00346931
0.00267652
0.00302922
0.00245818
0.00107779
0.00041074
0.000778156
0.00148943
0.00360798
0.00066046
0.000794431
0.00010994
0.000120994
0.00226692
0.00125406
4.6119e-05
0.000725683
0.00125457
0.000488275
0.000667565
0.0014925
0.000513578
0.00119851
0.00111874
0.000768739
0.000149154
0.00424774
0.00195144
0.00390085
0.00256022
0.0051276
0.00718544
0.00248601
0.00143856
0.002896
0.00497851
0.00391897
0.00400238
0.00383927
0.00427822
0.00177247
0.00421315
0.00249372
0.00453762
0.0053848
0.00142591
0.000176798
0.000570983
0.00473712
0.000693916
0.00588957
0.00062854
0.00342711
0.000971928
0.000143543
0.00203597
0.00128088
0.000961999
5.71764e-05
4.14474e-05
5.87981e-05
0.00082106
0.00143244
0.00158965
0.00526852
0.00370258
0.00438842
0.00148355
0.000992048
0.00119497
0.00316979
0.0041576
0.00273344
0.0062307
0.00242771
0.0028687
0.00507492
0.00124181
0.00290788
0.00110063
0.000424858
0.00228355
0.00285753
0.00385396
0.000417707
0.000431785
0.00626572
0.00481379
0.00427484
0.00205311
0.00116013
0.00230635
0.00614433
0.00535363
0.00282336
0.00597982
0.00163876
0.00404628
0.00215963
7.72281e-05
0.00308317
0.00279476
0.000717843
0.00138077
0.0021618
0.00300293
0.000929713
0.00146768
0.00449985
0.000720265
0.00364713
0.00160014
0.000496774
0.00246445
0.000407986
0.000162015
0.00269862
0.000403769
0.00630596
0.000779871
0.00310048
0.00130443
0.000283087
0.00326942
0.000455018
0.00155459
0.00113056
0.00352789
0.00383981
0.00204562
0.00328462
0.00218803
0.000545512
0.000385477
8.32772e-05
0.00288564
0.000599227
0.00295832
0.000617458
0.00247704
0.00145753
0.000593185
0.00166981
0.00070901
0.00267408
0.00107214
0.00315278
0.00106225
0.00542902
0.000540613
0.00196236
6.96354e-05
0.0017515
0.00101285
0.000518024
0.000189393
0.000622368
0.00293318
0.00344805
0.000152748
0.000102055
0.00166427
0.00212388
0.0018608
0.00399136
0.00213696
0.00106392
0.000364154
0.000639898
0.00209169
0.00144467
0.00112351
0.00162766
0.000377921
0.00112682
0.00131663
0.00116843
0.000277062
0.000237146
0.0010691
0.00184876
0.0048987
0.00134842
5.09606e-05
0.0037366
0.00170592
0.00326858
0.00451044
0.00537162
0.00550435
6.65085e-05
0.00167344
0.00475956
0.00155705
0.00428736
0.00326463
0.000364123
0.000944191
0.00413127
0.000599454
0.00343379
0.001809
0.000965275
0.00386216
0.00593692
0.000655971
0.000435968
0.00419416
0.00631376
0.00335702
0.00501558
0.00222264
0.00249348
0.00187056
0.00484613
0.000479655
0.00238502
0.000339623
0.000354267
0.00409028
0.00264173
0.00519667
0.000455452
0.00778008
0.00603421
0.000575229
0.000612562
0.000107842
0.00359548
0.00304553
0.00361069
0.00148727
0.00261774
0.000102483
0.000988135
0.000885145
0.0044635
0.000513589
0.00333265
0.00149368
0.000842786
0.00452038
0.000944828
0.00285911
0.00145143
0.000768948
0.00228568
0.00612341
0.00492692
0.00421925
0.00392389
0.000209243
0.00259306
0.0021922
0.00532088
0.00121814
0.00157232
0.000367944
0.00205558
0.00213389
0.00171564
7.60776e-05
0.000291957
0.00322565
0.00238595
0.00111567
0.000892507
0.00311335
0.0024742
0.00440491
0.00170795
0.00350231
0.00116812
0.00288303
0.00272114
0.00366821
0.000156413
0.00417294
0.00100347
0.00129786
0.00256367
0.00217013
0.000753611
0.00296132
0.00248443
0.00460338
0.00063578
0.00196411
0.000336281
0.00148122
0.00152964
0.00243332
0.000744454
0.00198764
0.00122647
0.000181
0.00117856
0.00210902
8.73785e-06
0.00368941
0.00184193
8.24089e-05
0.00508957
0.00404121
0.000617083
0.0013297
0.00170169
0.000803295
0.00299665
0.00238572
0.00121922
0.00376809
0.000696127
0.000128112
0.0003557
0.00216865
0.001435
0.00184004
0.00243798
0.00017592
0.00104846
0.00126473
0.00177944
0.000984559
0.00234502
0.000247415
0.00259525
0.000418538
0.00125962
0.00129634
0.000217965
0.000298473
0.00288728
0.00101652
0.00247631
0.00281714
0.00265699
0.00047354
0.00262605
0.00235036
0.00124656
0.000234381
0.000698351
0.000289651
0.00524528
0.000646094
0.00187104
0.000186628
0.00263095
0.00139465
0.00597982
0.000118935
3.03194e-05
0.00042813
0.00289883
0.00317103
0.00115023
0.00307991
0.000786191
4.26664e-07
0.00181162
0.00329157
0.00253265
0.00392519
0.00216899
1.43771e-05
0.00414063
0.000113275
0.00102213
0.00076374
0.00165893
0.000431662
0.00518137
0.000582978
0.000366173
0.00197061
0.000141762
0.000759412
0.000526432
0.00378227
0.000228163
0.00251199
9.73238e-05
0.00130911
0.00185042
0.00162682
0.000241487
0.000160168
0.00281127
0.00397789
0.00420275
0.00232565
0.00641567
0.000694092
0.00127767
7.8467e-05
0.00352893
0.00122127
0.000155421
0.00119295
8.61565e-05
0.00134086
0.000198278
0.00101628
0.00299343
0.00349192
0.000677002
0.00336996
0.00418278
0.00374466
0.00720903
0.00118645
0.00284117
0.00231237
0.00159879
0.00163773
0.00252143
0.00124709
0.00022559
0.0020972
0.00407133
0.00106278
0.00302299
0.00336281
0.00245947
0.000282192
0.0028692
0.00130464
0.0057358
0.00170235
0.00219476
0.00115511
0.00305271
0.00286736
7.00752e-05
0.00169737
0.000540941
0.00394508
0.00226267
0.000828748
0.00145084
0.000530967
0.000574762
0.00806482
0.000681614
0.00272702
0.0020625
0.000905356
0.00151148
5.4283e-05
0.000769938
0.00115669
0.00177928
0.00183996
0.000447172
0.00199999
0.000570223
0.000361551
0.000803518
0.00218136
0.00403409
0.000146783
0.00424098
1.59455e-05
0.00225149
0.000453935
0.0017624
0.00171862
0.000435145
0.000774198
0.000387974
0.000265452
0.00410519
0.00464583
0.00111332
0.00129592
0.00389945
0.00148339
0.00247602
0.00434925
0.00506836
4.68692e-05
0.00232877
0.000539712
0.000804796
0.00396962
0.00358067
0.000511409
0.00054236
0.000576729
0.00331726
0.00347538
0.0019973
0.00237837
0.000379187
0.00183483
0.00104109
0.00138972
0.00125726
0.00330816
0.00175867
0.00234367
0.000603855
0.000437219
0.00334524
0.00250152
0.00107985
0.000926889
0.00305762
0.00180375
0.00148679
0.00129184
0.00110642
0.000720027
0.00013167
0.0019949
0.00118384
0.00124261
0.00152098
0.00187551
0.00179248
0.000248145
0.0019913
0.00314238
0.00155431
0.00176923
0.00121963
0.00233957
0.000992154
0.00174518
0.00283855
0.00261943
0.00277706
0.00174785
0.000786098
0.000395926
0.00383205
0.00162536
4.56619e-05
0.00189005
0.00415373
0.00254153
0.00218282
0.00554733
0.00194047
0.00423498
0.00167928
0.00167605
0.000307364
0.00205935
0.00452506
0.0026212
0.00184789
0.0006263
0.00249908
0.00193975
0.00110675
0.00313141
0.000203943
0.000175613
0.00112444
0.000945977
0.00047076
0.000209477
0.00444271
9.83754e-05
0.00105803
0.00182262
0.000623498
0.00316029
0.00270294
0.00117054
0.0032367
0.00184893
0.000883718
0.00067784
0.00242134
0.00295756
0.0012841
0.00191546
0.00233929
0.000904154
0.00107562
0.00464981
0.00284217
0.000686937
0.00255446
0.000327771
0.000506265
0.00281495
0.00253443
0.000518434
0.00118899
0.00250138
0.00180854
0.00347288
0.000125633
0.000933982
0.00169716
0.00380938
0.000678778
0.000549294
0.000771587
0.00123756
0.00109526
0.00130627
0.00263998
0.00078243
0.000787778
0.00225217
0.00343807
0.00214605
0.0016147
0.0012887
0.00315472
0.00165281
0.00216678
0.0027136
0.00248433
0.00011329
0.000701708
0.000194828
0.0052461
0.000936955
0.000869899
0.00311807
0.00346726
0.000626457
0.000622906
0.00194738
0.00136049
0.000402944
0.00326512
0.00106914
0.00303735
0.00181528
0.000185603
8.75624e-06
0.00113553
0.00136983
0.0033353
0.00211794
0.000828438
0.00466137
0.00223082
0.00111651
0.0023849
0.00260688
0.000220294
0.00248571
0.00197629
0.000183495
0.00227521
0.00247208
0.00279237
0.00201503
0.000499059
0.00086601
0.0010985
0.00282501
0.00192558
0.00290162
0.0041742
0.00118875
0.00271946
0.00100173
0.000283286
0.0039305
0.00227751
0.00180976
0.000249468
0.00115357
0.00384135
0.000979851
0.00023844
0.00216567
0.000219389
0.000180324
0.0011664
0.00201309
0.00216032
0.00160975
0.000298232
0.00575259
0.00364421
0.000960566
0.000946714
0.000774269
0.00234121
0.000331201
0.000637748
7.87401e-05
0.000982974
0.000172211
0.00170575
0.00124922
0.000491842
0.00335294
0.00131854
0.00253041
0.000627998
0.00120001
0.00131684
0.00351501
0.00526588
0.000847644
0.00186632
0.00115647
0.000995957
0.00151355
0.00309598
0.000735271
0.000959943
0.00188278
0.00769322
0.000847606
0.000134213
0.0017863
0.000144053
0.000356517
0.00342539
0.00011413
0.00611271
0.00191644
0.00488331
0.00189902
0.00291426
0.00142603
0.000791924
0.00153944
0.00184864
0.0005798
0.000790107
0.000332649
0.00249987
0.00128433
0.00249331
0.00134567
0.000557428
0.00140453
9.16403e-06
0.00235664
0.00241082
0.000264054
0.00169039
0.000747747
0.00106823
0.000781578
0.000182383
0.00405524
0.00318877
0.00123674
0.00114388
0.00425748
0.00020831
0.00109465
0.000624129
0.000459641
0.000628908
0.000680519
1.46848e-06
0.00188331
0.00320317
0.00261678
0.000742374
0.00301174
0.00128406
0.00276511
0.000618237
0.00178007
0.00175385
0.0021346
0.000203078
0.00228919
0.000666713
0.000438272
0.000480855
0.000369808
0.000591888
0.00165192
0.0048184
0.00292687
0.00308164
0.00116909
0.00194196
0.00169464
6.75543e-05
0.000462802
0.00130782
0.00153436
0.00165822
0.00118362
0.000472154
0.000365139
0.000154133
0.000600859
0.000382258
0.00283763
0.000908576
0.00283762
0.00123262
0.000598494
0.000960984
0.00187748
0.00216655
0.0008438
0.00174552
0.000618016
4.75215e-05
0.00349212
0.000187742
0.00018278
0.00192824
7.91509e-05
0.00117351
0.00108087
0.00089152
0.000267012
0.00140494
0.00246447
0.00145888
0.00276436
0.00317691
0.00237774
0.00499815
0.00319466
0.00136161
0.00504303
0.00400957
0.000185472
0.00126086
0.000199767
0.00375691
0.00205159
0.00147744
0.00237679
0.00351326
0.00223722
0.00461887
0.000350431
0.000593051
0.000507222
0.00297962
0.00373081
0.00224079
0.00398054
0.000442531
0.0024484
0.00050575
0.00425952
0.000266249
0.0033896
0.000630906
0.00241326
0.00321088
0.00412098
0.00159566
0.000552989
0.0010067
0.000556263
0.000182728
0.000359345
0.00612791
0.000688924
0.0068734
0.00611845
0.000831186
0.000229882
0.00340499
0.00207176
0.00125341
0.000662788
0.00143889
0.000696626
0.00179009
7.98931e-05
0.00177899
5.07184e-06
0.00229955
0.00155308
0.00218885
0.00339524
0.00326823
0.0048799
0.00452391
0.00299584
0.00138491
0.000574802
0.00219243
0.00160494
0.00062452
0.000196569
0.00069058
0.0019165
0.00171603
0.000450694
0.000480033
9.84508e-05
0.00490758
0.000128474
0.00263833
0.00189547
0.000623415
0.00360684
0.00233974
0.000757431
0.00239488
0.00182111
0.00148112
0.000335949
0.00120772
0.00115249
0.000149881
0.00018493
0.00279854
0.00475844
0.000939843
0.00327993
0.00155186
0.00102637
0.00269304
0.00114066
0.000575461
0.00147312
0.00223035
0.000671741
0.00385591
0.000463113
0.0040663
0.000766726
0.00072696
0.00129579
0.00309371
0.00161258
0.0014578
0.000672703
0.000342756
0.00364034
0.0018014
0.00278513
0.0024519
0.0029318
0.0010482
0.00101361
0.000274488
0.00292651
0.0010929
0.000317334
0.00180351
0.000452069
0.000514624
0.000877481
0.000405624
0.00071446
0.000597577
0.00293409
0.00453465
0.00534236
0.000151036
0.00185324
0.000773889
1.59263e-05
0.000718672
0.00128234
0.000202382
0.00232991
0.000119522
0.00219048
0.000848187
4.11347e-05
0.000652247
0.00124068
0.00227961
0.00444684
0.000340265
0.000581466
0.00149721
0.000297274
8.46815e-05
0.000620574
0.00204664
0.00286797
0.00243309
0.00456042
0.00546291
0.00247692
0.00161758
0.000872472
0.00147618
0.00223048
0.00114017
0.00289648
0.00129035
0.00258605
0.000416952
0.00479573
0.000746628
0.00434049
0.00459365
0.00150825
0.00229238
0.00149353
0.00535398
0.00529111
0.00538793
0.000179435
0.00346358
0.0018392
0.0016501
0.00011232
0.00138708
0.000379677
0.000566707
0.000502721
0.000164449
0.00530361
0.000487334
0.00447609
0.000390984
0.00240003
8.82313e-05
0.00114996
0.000219643
0.0078516
0.00233623
0.00370153
0.000169541
0.0022652
0.0013355
0.00168177
0.0019906
0.00102223
0.000393212
0.00169988
0.000806199
0.0050862
0.000735746
0.00434117
0.00454671
0.00172398
0.000418428
0.000732219
0.00470486
0.00166833
0.0022091
0.000487986
0.000618742
0.000223162
0.000533541
0.000571218
0.00083476
4.15127e-05
0.00141463
0.00146984
0.00240426
0.00297966
0.00301936
0.00199258
0.00348352
0.00178518
9.17419e-05
0.00295431
0.00226674
0.00316825
0.00284851
0.000167123
0.000355779
0.000409081
0.000314451
0.000954891
0.000139053
0.00534748
0.000674305
0.00130245
0.00255206
0.00066522
0.00124683
0.000702804
0.00266712
0.00256262
0.000147317
0.000369106
0.00107909
0.00257982
0.00399254
0.00042413
0.00185639
0.000354454
0.00250511
0.00103293
0.000349835
0.000952006
0.00214206
0.00110712
0.001347
0.000786901
0.00112936
0.00240076
0.00182401
0.00138909
0.00219413
9.4369e-06
0.00238336
0.00382753
6.50033e-05
0.00371368
0.00165368
0.00171642
0.000305259
0.00111084
0.00155813
0.00195059
0.000844407
0.00150409
0.003328
0.00272514
0.00303948
0.00133965
0.000465873
0.000679317
5.11933e-05
0.00100384
0.00116612
0.000896106
0.00258105
0.00044882
0.00363152
0.00177752
0.00164736
0.00217275
0.000205535
0.000137659
0.00247526
0.00195854
9.1832e-05
0.000200737
0.000477958
0.00194383
0.00539527
7.12737e-06
0.00576167
0.000429769
0.000935944
0.00132235
0.00470632
0.00418491
0.00127876
0.00324369
0.00268508
0.000114496
0.00211239
0.0046168
0.000185834
0.00763317
0.00765018
0.00362611
0.00225066
0.000759052
0.00489434
0.00250444
0.00371708
0.00322804
0.00453639
0.00551135
0.00585418
0.00226093
0.0024514
0.000336679
0.00186836
0.00328319
0.00235769
0.0061183
0.00785155
0.00128288
0.0074989
0.00186453
0.002468
0.00373092
0.00403558
0.00119589
0.00459833
0.00130963
0.0037355
0.00594299
0.00606816
0.0032476
0.00297658
0.00287161
0.000843412
0.00115151
0.00202359
0.000668001
0.00134346
5.37987e-05
0.0029886
0.000228551
0.00348237
0.00300485
0.00105017
0.00114648
0.000396314
0.000209245
0.00393656
0.00119372
0.00552725
0.0017591
0.000201214
0.000285819
0.00473684
0.00231684
0.00519562
0.00343338
0.00111449
0.00410014
0.00785212
0.00817539
0.00258981
0.00635122
0.000465105
0.00121936
0.00310139
0.000447549
0.000610384
0.00531363
0.000533218
0.00214642
0.000297191
1.48739e-05
0.00291314
0.000891865
0.00141591
0.00136137
0.00247224
0.00321931
0.00284496
0.00198542
0.00445792
0.00188626
0.00182904
0.0024613
0.000921425
0.00160469
0.000884579
0.00443842
0.00285677
0.00119313
0.00255275
0.00205338
0.000602859
2.82457e-05
0.000960582
0.000160251
0.00226004
0.00300437
9.32187e-05
0.00205382
0.00196912
0.00313683
0.00254009
0.00112201
0.00102689
1.14463e-05
0.00120224
0.000110871
0.00244971
0.00215423
0.00173101
0.00178345
0.000600911
0.00130658
0.00228081
0.00188582
0.0025109
0.00380737
0.00146294
0.00138141
0.000246185
0.00215804
0.00138811
0.00265068
0.000574223
0.00101384
6.15797e-05
0.00530195
0.000629214
0.00119445
0.000911493
0.00143246
0.00105781
0.000433167
0.00186569
0.00107716
0.00406014
0.00630866
0.00240044
0.00539706
0.000126253
0.00157302
0.000968132
0.00208306
0.000766584
0.000321134
0.00217586
0.00213733
0.00656252
0.00674845
0.00417801
0.000684547
0.000552544
0.00138385
0.00382158
0.0019886
0.00424151
0.00781584
0.00373949
0.00795812
0.00367405
0.00320971
0.00527462
0.002807
0.00362143
0.00371537
0.003201
0.00258847
0.00611104
0.000735914
0.000796879
0.000236093
0.00132452
0.00012152
0.000458128
0.000347199
0.00510045
0.000468196
0.000819604
0.00430773
1.70519e-05
0.00486899
0.00034305
0.0013229
0.00138396
0.00442633
0.000365522
0.00796469
0.00323678
0.000359081
0.000521298
0.0034945
0.000920945
0.00135667
0.00445462
0.00116046
0.00408973
0.00434545
0.00617115
0.00267876
0.00168515
0.004402
0.0024603
0.00226244
0.00354925
0.000377069
0.000569924
0.000963632
0.00364748
0.000694066
0.00382144
0.002268
0.00107367
0.000490988
0.00416708
0.00546409
0.000127927
0.000471176
0.000939336
0.00287453
0.00406635
0.00151326
0.00427901
0.00199621
0.00480019
0.000589565
0.00203932
0.00234976
0.00436515
0.00371356
0.00363615
0.000462022
0.00104737
0.00150531
0.00407551
0.000315914
0.00134736
0.00268329
0.00201223
0.00267187
0.00178301
0.00300133
0.0020025
0.00225075
0.000975883
0.00275453
0.00202068
0.000144465
0.00297
0.00417132
1.23332e-05
0.00133117
0.00075195
0.000237676
0.00156194
0.00125399
0.000779216
0.00238191
0.00165949
0.000766088
0.00560625
0.00247161
0.00328421
1.63699e-05
0.00181606
0.00311224
0.000395753
0.00110828
0.00276818
0.00348736
0.00207182
0.00232762
0.00222162
0.00277867
0.00262218
0.00109728
0.00012115
0.00123236
0.001853
0.00322573
0.00113944
0.00259716
0.000301612
0.00685089
0.00106147
0.00229012
0.00088689
0.00151393
0.000563009
0.000340076
0.0018462
0.00081703
0.000944103
0.00130378
0.000302172
0.00283408
0.00240719
0.000194004
0.0019753
0.00199306
0.000292446
0.00217266
0.00360564
1.14476e-05
0.00215668
0.00231525
0.00171981
0.00214194
0.00670168
0.006903
0.00589791
0.00370105
0.00115873
0.00084997
0.000994327
0.00297461
0.0055273
0.00195947
0.00347853
0.00520176
0.00352213
0.0037207
0.00211662
0.00125083
0.003903
0.0075836
0.00286208
0.00758228
0.00353363
0.000636781
0.00187567
0.000536954
0.00224295
0.000589414
0.000922384
0.000224298
0.00603336
0.000501052
8.91461e-05
0.00404609
4.1352e-05
0.00396505
0.000471673
0.00774394
0.000885296
0.00554704
0.00105281
0.00806088
0.00272646
0.00407117
0.0041528
0.00393651
0.000174553
0.00223164
0.00644438
0.00549531
0.00252427
0.00101065
0.00231
0.00553987
0.00407543
0.00179682
0.00444815
0.00187562
0.000577128
0.00300008
0.000251817
0.00319251
0.00517178
0.00211001
0.00036373
0.00206858
0.000724872
0.000596393
0.00155663
0.000955071
0.000833316
0.00265764
0.00302598
0.0050306
0.00352784
0.00864539
0.00366406
0.000689576
0.00484617
0.00163747
0.00206927
0.00494323
0.00334241
0.000940135
0.00161954
0.000906692
0.00296098
0.000671576
0.000121718
0.00276823
0.00161844
0.00445312
0.0029377
0.00418541
0.00218561
0.00160648
0.00303637
0.00162429
0.00191647
1.33848e-05
0.000717856
0.00606021
0.00131751
0.00293201
0.00285792
0.00176892
0.00143868
0.00691009
0.00163997
0.00216526
0.000479201
0.00461006
0.000697876
0.000766687
0.00135075
0.00168738
0.00254123
0.00211786
0.00345071
9.88771e-05
0.00268007
0.00186472
0.00254964
0.00121309
0.00040235
0.00136567
4.01327e-05
0.0018381
0.000814995
0.00251664
0.00319518
0.000612136
0.00439426
0.00156056
0.00108365
0.000776083
0.00167987
0.00151247
0.00536883
0.00243261
0.0014715
0.00208679
0.000887426
0.00274052
0.00467871
0.00241204
0.00351118
0.0042559
0.00213026
0.00567595
0.00169193
0.000368876
0.000402031
8.2491e-05
0.000738154
0.00110053
0.00091936
4.29927e-05
0.00112764
0.00070593
0.00324981
0.00471694
0.00751289
0.00554621
0.000622305
0.00163485
0.00104537
8.85177e-05
0.00143551
0.00326214
0.00225166
0.00547697
0.00689295
0.00860089
0.0049318
0.00179394
0.003516
0.000244741
0.00125995
0.00366982
0.000128034
0.00603422
0.00514931
0.00552291
0.00232433
0.00150118
0.00117576
0.00218241
0.000664038
0.00311276
0.00241001
0.00292313
0.00202158
0.00523457
0.00289759
0.0054722
0.00586235
0.00594061
0.00219763
0.00192048
0.00309225
0.00616196
0.00453261
0.00109583
0.00488906
0.00331214
9.09194e-05
0.00067464
0.00332568
0.00508616
0.00235813
0.000960232
0.00581516
0.00288758
0.00339579
0.00349857
0.00147548
0.000949498
0.00159595
0.000746026
0.00396764
0.00370821
0.00371999
0.00421943
0.00499606
0.000802644
0.00285247
0.000749211
0.000739197
0.00459473
0.00369416
0.00425297
0.00171016
0.00422622
0.0017919
0.00245401
0.00234624
0.000879339
0.00213484
0.00341546
0.00208838
0.00509951
0.00254768
0.000994391
0.000573782
0.00278836
0.00209113
0.00263014
0.00446615
0.000107819
0.00386287
0.0035885
0.00276941
0.00484682
0.0061069
0.0045665
0.001348
0.00172565
0.00270811
0.0021407
0.0020267
0.00422033
0.00268515
0.00110209
0.00171818
0.000655542
0.000585975
0.000370484
0.00198511
0.00170864
0.00279449
0.0011255
0.00541443
0.00140988
0.00196899
0.00410346
0.00162128
0.00276158
0.0014725
0.00124922
0.00337393
0.00345104
0.00308937
0.000833967
0.000714914
0.00297198
0.00305149
0.00266472
0.000857192
0.00120693
0.00348612
0.00246868
0.00226612
0.000712892
0.00217107
0.00134271
0.00266385
0.00128697
0.00147928
0.00067404
0.00170298
0.00217409
0.00244373
0.00108032
0.00199653
0.00290303
0.00371854
0.000755134
0.000492073
0.00111713
0.00282439
0.000360756
0.00070759
0.00171468
0.00161953
3.37973e-05
0.000884838
0.00113718
0.000190483
0.00413413
0.00199132
0.00318641
0.00611129
0.00392943
0.00132896
0.00160881
0.00382221
0.00370447
0.000948761
0.000994783
0.00322541
0.00793911
0.00349927
0.00135424
0.00125802
0.00153984
0.001662
0.00133365
0.00023987
0.00308775
0.00392738
0.00575102
0.00169398
0.000139653
2.85939e-05
0.000167416
0.00236886
0.000360026
0.0026823
3.86963e-05
0.0062455
0.000238584
0.000920644
0.00164222
0.00114024
0.000645768
1.83848e-05
0.0031886
0.000533047
0.00379134
0.00036643
0.00898248
0.00393064
0.00469109
0.00014347
0.00360175
0.000186191
0.000517958
0.00198865
0.000234309
0.00428074
0.00410348
0.00635491
0.00302755
0.00774302
0.00535473
0.0029287
0.00111535
0.00196706
0.00209725
0.00388645
0.00108776
0.00104452
0.0052382
0.00056404
0.000341257
0.000650873
0.000433691
0.00159355
0.00229908
0.00340568
0.0024132
0.00092746
0.00548062
0.00431163
0.00289236
0.000118916
0.00150609
0.00509294
0.00160811
0.00107583
0.00407854
0.00301846
0.00493074
0.00254273
0.00172042
0.000487649
0.00220798
0.00012931
0.00116242
0.00199768
0.00511173
0.000311972
0.00814901
0.0013313
0.00271212
0.00372709
0.000195931
0.000808563
0.00242663
0.00267111
0.0033661
0.00100654
0.00203639
0.00313771
0.000367413
9.89546e-05
0.00216809
0.00316317
0.00110719
0.000204048
4.89493e-05
0.00324351
0.00575288
0.00351221
0.00162036
0.00169609
0.000489474
0.00133383
0.000904814
0.00261386
0.00288366
0.00105254
0.000334488
0.000100374
0.00340387
0.00118495
0.000567788
0.000644569
0.00160033
0.000255114
0.0019773
0.00264603
0.000484323
7.1163e-05
0.00367721
0.00534387
0.00279536
0.00114083
0.000831832
0.00374345
9.8672e-05
0.000445348
0.000286504
0.00115985
0.000194976
0.0037241
0.00487656
0.000565173
0.00469884
0.00327799
0.00103929
0.00260264
0.00228547
0.0015894
0.00131941
0.00137921
0.00251948
0.00176363
0.000376264
0.000587716
0.000568155
0.00192243
0.00634114
0.00162898
0.00360159
0.000947719
1.33967e-05
0.00169772
0.000374135
0.00015453
0.00577144
0.00270458
0.00400369
0.00219126
0.00280123
0.00147417
0.00060459
0.00011173
0.000421175
0.00140129
0.00431934
0.00478199
0.00277924
0.00421221
0.00296796
0.000540957
0.000132458
0.0012907
0.00174669
0.00146575
0.00455781
0.0047252
0.00294101
0.00522959
0.000111558
0.0024482
0.00458574
0.00144618
0.00273406
0.000357784
0.0068926
0.00205081
0.00557298
0.00273953
0.00092664
0.0020039
0.00178167
0.000985258
0.000354808
0.000260352
0.00124671
0.00110777
0.00345244
0.00165119
0.00482169
0.000186659
0.00212408
0.00146428
0.00156347
0.00274465
0.00491433
0.00297911
0.00550457
0.00444064
0.0027649
0.00246735
0.000388386
5.03573e-05
0.00168284
0.00134633
0.00371454
0.00455604
0.00395842
0.00269706
0.00422995
0.000349239
0.00198688
0.00131526
0.000620817
0.00303018
0.00311724
0.00604798
0.00286138
0.00230773
0.000322301
0.00213076
0.000190394
4.60827e-05
0.00225888
0.000435298
0.00435453
0.000854197
1.99064e-05
0.00126418
0.000763045
0.000233603
0.00506456
0.00237827
0.0022168
0.00159473
0.00350156
0.0028711
0.000864715
0.00441402
0.00207837
0.0022898
0.0016896
0.00124492
0.00544166
0.0032019
0.00191252
0.00117063
0.000354715
0.00198231
0.00275957
0.00215891
0.000290479
0.0020185
0.00125049
0.000558467
0.00437308
0.0019546
2.28545e-05
4.90678e-05
0.00237041
0.00277953
0.00403344
0.00172094
0.00247893
0.000933681
0.00187199
0.000262328
0.00300487
0.00102493
0.00147121
6.05792e-05
0.00125248
0.00266713
0.00130168
0.00022029
0.000961347
0.00368122
0.00165255
0.00216985
0.000590238
0.00336867
5.42196e-05
0.00179671
0.00237879
0.00100015
0.00220724
0.0055202
0.000795815
0.00646741
0.0012137
0.00110887
0.000142538
0.00245779
0.00127696
0.00365077
0.0020099
0.00673135
0.00507792
0.00476688
0.000685025
0.00364911
0.00157323
0.00265873
0.00107809
0.00276576
0.000253729
0.00407932
0.000579349
0.000267103
0.00260263
0.00199109
0.00260769
0.00236641
0.000824674
0.00347415
4.45031e-05
0.00692926
0.00103068
0.00259142
7.50474e-05
0.00105075
0.000804032
0.000248615
0.000660129
0.00123444
0.000265732
0.00097465
0.0021698
0.000162434
0.00173956
0.00180022
0.0032595
0.000513205
0.00392722
0.000147743
0.00582308
0.00236747
0.00196754
0.000420079
0.00191651
0.00193584
0.00124024
0.0025467
0.00192043
0.00312981
0.00376968
0.00379137
0.000953929
0.00577132
0.00305397
9.51674e-05
0.0022304
0.00261869
0.00257743
8.97747e-05
0.00409451
0.00506472
0.00474255
0.000900432
0.000125826
0.00180327
0.000618479
0.00300573
0.000401147
0.00110388
0.000543291
0.000129703
0.00172243
0.00028598
0.00400757
0.00173669
0.0024837
0.000519058
0.00110548
0.000357976
0.000399919
0.0058035
0.002981
0.000866353
0.000599207
0.00156128
0.000547523
0.00085277
0.00361247
0.00370358
5.6104e-05
0.00209522
0.00343022
0.00378603
0.000168167
0.000733595
0.0010857
0.00153807
0.00173467
0.00207225
0.00490349
0.000788934
0.0011084
0.000506319
0.00337298
9.00138e-05
0.000650064
0.000167453
0.00167973
0.0017896
0.00308392
0.000673112
0.00388577
0.000306356
0.00299658
0.00127158
0.00290084
0.000266157
0.00249558
0.00195606
0.000609871
0.00190792
0.000411424
0.00202514
0.00109111
0.000441698
0.000153856
0.00507334
0.00154192
0.000896268
0.00236063
0.000930401
0.00140153
0.0021051
0.00278375
0.000150741
0.0013985
0.000637617
0.00147103
0.00128802
0.00452332
0.00269501
0.000878249
0.00317608
0.0001407
0.00458578
0.001201
0.00100515
0.000459838
0.00144746
0.00113899
0.0022496
0.00316683
0.00109795
0.00224238
0.00172179
0.000268077
0.000451129
0.0036664
0.000674871
0.00321138
0.00098983
0.00181965
0.00131774
0.00133757
0.000984893
0.00115021
0.00108209
0.00186907
0.00287213
0.00361575
0.00102717
0.00221356
0.00147466
0.00299303
0.00083895
0.00168991
0.000716655
0.00172855
0.000441524
0.00135236
0.0024688
0.00278987
0.00422241
5.306e-06
0.00226829
0.00177678
0.000435965
0.00122326
0.00292393
0.00240394
0.00106535
0.00136892
0.000652468
0.00242888
0.00152602
1.26221e-05
0.00175909
0.00655813
5.89609e-05
0.00148769
0.00200438
0.000125537
0.00108466
0.00178699
0.0021053
0.00335771
4.30375e-05
0.00210015
0.000292265
0.00372524
0.000894027
0.00160565
0.00152853
0.000958734
0.00340815
0.00234632
0.000469803
0.00291609
0.000671269
0.000722939
0.00637851
0.000759236
0.00275686
0.00053837
0.000321656
0.00385918
0.000690677
0.000854833
0.000998789
0.00013408
0.001787
0.00221248
0.00213314
0.00220505
0.0010848
0.000427053
0.00206415
0.000304199
8.71629e-06
0.000433422
0.000503012
0.00124729
0.00464838
0.000932208
0.00247237
0.0010838
0.00188115
0.00222663
0.000545691
0.00242006
0.00212985
0.00119016
0.00215018
0.00394871
0.000998955
0.00129543
0.00155544
0.00166479
0.000885709
0.000168659
0.000250686
0.00368794
0.002207
0.00311863
0.000462861
0.00238619
0.00256538
0.00138299
0.00160117
0.000939172
0.00229783
0.00159643
0.000205646
0.00275102
0.000981714
0.00099581
0.000368912
0.00161353
0.00198332
0.000762257
0.00188723
0.000287414
0.00242298
0.00242294
0.000462932
0.00111955
0.00119039
0.000606647
0.000319975
0.000906456
0.00181723
5.84955e-05
0.00099174
0.00204947
0.00084556
0.00160846
0.00409359
0.00219359
0.000975526
0.00067561
9.20072e-06
0.000784953
0.00350711
0.00307681
0.00168308
0.00133335
0.00240319
0.00250804
0.00151733
0.000732688
0.000185683
0.000860872
0.00104531
0.000549456
0.00096557
0.000272388
0.00118202
0.000885513
0.000739574
0.00386636
0.00409429
0.00157655
0.00108409
0.00160099
0.00252071
0.00166565
0.00161057
0.00140367
0.000789122
0.000373648
0.000364419
0.000658758
0.0010081
0.0043642
0.000667876
0.00173318
0.00517641
0.00414816
0.00209368
0.00119496
0.00304178
0.00202255
0.00185517
0.000629756
0.0021449
0.000648946
0.000274997
0.00100921
0.00123463
0.00104038
0.00196757
0.000982491
1.70425e-05
0.00114121
0.00141039
0.00450374