/*--------------------------------*- C++ -*----------------------------------*\
| =========                 |                                                 |
| \\      /  F ield         | OpenFOAM: The Open Source CFD Toolbox           |
|  \\    /   O peration     | Version:  2212                                  |
|   \\  /    A nd           | Website:  www.openfoam.com                      |
|    \\/     M anipulation  |                                                 |
\*---------------------------------------------------------------------------*/
FoamFile
{
    version     2.0;
    format      ascii;
    arch        "LSB;label=32;scalar=64";
    class       volScalarField;
    location    "0";
    object      stateMean;
}
// * * * * * * * * * * * * * * * * * * * * * * * * * * * * * * * * * * * * * //

dimensions      [0 0 0 1 0 0 0];

internalField   nonuniform List<scalar> 
3200
(
320.262
321.886
320.46
320.244
320.598
320.561
321.856
322.557
322.548
323.257
322.054
321.571
321.61
322.183
322.328
321.292
320.554
321.241
320.168
321.727
317.634
318.434
317.787
317.779
317.379
318.637
318.397
319.163
319.715
319.785
319.013
318.995
320.273
320.423
318.093
319.437
318.489
317.89
317.931
317.939
315.845
316.282
315.954
315.012
314.866
315.519
315.898
315.826
316.853
315.775
316.339
317.503
316.482
317.764
315.315
315.69
316.452
314.05
316.047
316.912
312.47
312.901
311.251
311.267
311.822
312.441
313.02
313.17
313.728
314.512
314.774
313.305
312.951
312.742
313.645
312.197
312.375
312.747
313.066
312.722
309.471
308.632
309.25
309.703
309.518
310.443
310.883
310.63
310.779
310.49
310.32
311.239
309.656
309.404
311.179
309.884
309.707
310.077
309.732
310.024
307.335
307.547
307.1
306.882
306.891
306.919
306.625
307.046
307.718
306.903
306.859
307.88
307.791
308.113
307.049
306.963
306.203
307.109
307.113
306.884
304.342
304.346
305.177
304.237
304.037
304.018
304.983
304.006
304.343
304.735
304.199
304.131
304.321
304.737
305.248
304.608
305.454
303.477
303.274
304.872
301.058
301.283
301.204
301.026
300.424
301.349
301.821
301.576
301.665
302.324
301.262
301.643
301.39
301.959
301.695
301.713
301.025
301.594
301.046
301.046
320.546
320.633
319.804
321.07
320.986
321.952
321.613
321.361
323.185
323.684
323.211
322.377
322.418
321.977
321.539
320.864
321.128
322.521
319.881
321.753
319.38
317.539
318.355
318.688
317.829
319.582
318.345
320.388
319.752
320.678
320.944
320.199
320.179
319.923
319.822
319.329
318.889
318.672
318.448
318.174
316.666
316.441
314.243
315.546
316.1
316.426
316.16
316.148
316.821
315.826
318.578
316.778
315.857
317.559
315.884
316.066
315.881
314.907
316.175
316.22
312.447
312.397
310.861
311.63
312.123
313.139
313.713
313.6
312.573
312.916
313.712
312.624
314.84
312.806
313.105
313.439
314.102
313.695
312.308
312.748
308.936
310.701
310.283
310.696
309.097
310.518
309.837
310.665
311.458
310.61
311.25
311.253
310.323
310.845
308.782
310.736
309.279
309.591
309.683
310.617
307.017
307.471
307.5
306.245
306.329
307.058
306.839
307.314
307.919
308.259
308.166
308.976
308.173
306.939
307.497
308.272
306.881
307.335
307.507
306.659
304.949
303.88
305.26
304.73
302.862
304.787
304.122
304.823
305.396
305.203
304.736
304.92
304.992
303.826
305.672
304.468
304.376
303.795
304.852
304.702
300.184
302.055
301.764
301.368
301.321
300.919
302.019
301.271
302.121
301.527
301.981
302.027
301.258
301.499
301.622
301.836
300.921
302.92
301.817
301.372
321.61
321.335
322.316
320.335
320.59
321.067
323.304
323.19
322.485
323.678
322.793
322.969
323.614
323.021
321.51
322.128
320.681
321.847
320.478
321.65
319.654
318.294
318.358
317.609
317.393
318.788
318.673
319.917
320.085
320.419
319.463
320.731
319.865
320.388
319.749
318.104
318.104
316.842
317.94
320.239
316.99
315.172
315.508
316.047
315.334
315.889
316.061
317.03
316.885
317.798
317.517
317.436
316.085
317.369
315.798
316.945
315.815
314.274
315.055
315.99
312.838
312.837
312.166
311.273
311.966
312.5
312.878
314.287
313.712
313.931
312.947
314.145
313.859
313.995
314.469
312.842
312.654
312.857
312.506
313.393
310.398
309.476
309.764
309.317
309.763
309.405
310.466
310.095
310.958
310.496
310.547
312.464
311.136
309.699
310.462
310.128
309.488
309.368
310.055
310.576
307.678
308.443
306.992
306.755
307.64
307.254
308.34
307.255
307.872
307.54
307.774
308.045
307.641
308.518
307.713
308.672
306.793
307.162
305.467
308.155
304.347
303.822
303.803
304.18
303.618
305.362
305.103
303.663
305.082
304.862
305.009
304.209
304.375
305.292
305.378
304.477
304.744
303.936
303.686
303.86
302.102
301.493
302.231
301.358
301.9
301.946
301.521
301.704
302.504
301.951
300.897
302.483
302.415
301.444
302.347
300.811
301.108
301.52
301.628
301.482
322.265
320.742
320.814
321.981
321.592
322.496
321.478
323.842
324.077
324.098
323.297
323.059
323.431
322.416
322.692
322.44
321.338
322.473
321.762
321.841
318.605
318.23
319.946
319.029
319.187
320.196
319.824
320.555
319.275
320.881
321.186
320.306
320.738
320.112
320.12
318.306
319.138
319.427
318.194
318.331
315.798
315.985
315.735
316.232
315.671
315.67
315.938
318.295
315.725
317.652
318.279
317.789
318.677
316.884
316.882
316.939
316.154
316.234
315.535
315.535
313.423
313.787
312.76
312.218
312.272
312.712
311.9
314.025
313.673
313.928
314.153
315.082
313.605
313.773
313.816
312.926
311.999
312.639
313.64
313.539
310.501
309.985
309.222
309.942
308.807
310.295
310.356
311.58
310.402
310.528
311.443
310.824
311.053
312.266
311.527
310.845
309.897
309.947
309.72
312.237
306.763
307.922
307.872
307.127
308.043
307.763
308.137
307.673
307.575
308.739
308.034
307.507
307.853
307.789
307.993
306.907
306.165
307.193
305.783
306.967
304.878
304.398
304.888
303.93
304.423
304.421
304.867
304.746
306.135
306.33
305.252
305.278
303.638
304.297
303.903
303.231
302.91
304.366
303.551
304.029
301.649
300.232
302.539
301.647
301.692
301.736
300.593
300.571
302.24
300.931
301.534
302.191
301.933
301.174
301.183
302.526
300.963
300.753
301.611
301.538
321.884
321.969
321.27
322.404
321.618
322.506
323.053
323.489
323.818
324.086
324.363
324.824
324.29
323.132
323.58
323.209
321.528
321.697
321.806
321.819
318.607
318.977
319.192
319.972
319.34
319.518
319.552
319.944
321.909
320.58
320.889
321.145
319.555
320.983
320.062
320.261
317.899
319.613
319.109
319.878
315.996
316.97
315.43
315.788
316.586
316.385
315.927
316.802
318.419
318.135
317.141
317.215
317.987
316.369
316.973
316.739
315.962
316.26
315.782
315.45
314.016
312.796
312.764
312.815
313.488
312.983
313.391
314.095
313.606
315.291
314.987
314.837
313.702
313.311
314.378
313.083
314.119
313.378
313.163
314.081
310.728
309.788
309.416
310.537
310.824
310.017
310.311
311.111
311.027
312.241
312.025
312.478
311.311
310.808
310.364
309.484
310.224
310.378
310.24
310.23
307.386
307.56
306.495
307.227
307.876
307.102
309.001
308.727
307.657
307.805
307.23
307.646
308.734
308.778
307.03
307.669
307.684
307.246
308.77
307.338
303.975
303.356
303.338
304.681
304.78
305.28
304.36
304.726
303.907
304.605
304.005
305.456
304.906
304.772
304.341
305.007
305.506
303.748
304.053
302.822
302.094
301.781
302.192
300.72
301.473
300.822
302.197
301.571
300.958
300.908
300.812
302.252
301.475
301.34
301.241
300.687
300.925
302.348
302.702
301.78
321.972
321.763
321.965
321.074
322.081
322.692
323.617
324.423
323.058
324.756
324.361
323.602
324.12
323.756
323.654
322.166
323.037
321.356
321.537
322.946
319.524
318.348
319.329
319.678
319.093
320.347
320.809
320.885
321.446
321.19
321.793
321.531
320.752
319.53
319.819
320.651
319.632
318.644
319.074
319.483
317.259
316.105
315.561
316.859
316.524
317.658
316.502
317.508
317.623
318.625
320.473
317.659
317.785
318.052
317.132
316.727
315.409
316.115
317.768
316.202
314.329
313.589
314.164
313.083
313.565
314.574
314.922
314.369
314.952
314.678
315.57
315.107
315.335
313.918
313.915
314.255
313.527
313.989
313.75
312.884
309.459
309.899
310.662
310.304
310.711
309.722
310.186
311.726
311.103
312.847
311.456
311.118
311.147
311.035
311.179
310.557
310.547
309.746
311.124
310.794
306.919
308.177
306.999
308.399
307.517
308.408
307.459
308.774
308.137
308.95
308.45
308.335
307.968
308.113
308.042
308.215
309.031
308.294
308.199
306.788
304.889
304.877
304.425
304.398
304.236
304.258
304.304
305.24
305.074
304.845
305.003
305.113
304.762
305.674
305.003
303.77
304.914
304.264
304.653
303.727
300.789
301.717
300.965
301.336
301.54
300.532
301.67
301.691
301.071
301.638
302.016
301.979
301.367
301.532
302.009
300.811
301.962
300.658
302.421
302.159
323.056
322.804
321.75
321.004
321.785
323.454
323.501
324.173
325.694
325.265
325.079
325.246
325.377
324.634
325.008
323.193
322.822
322.026
322.735
322.648
319.383
320.215
319.16
318.901
320.235
319.084
320.875
322.163
321.077
322.163
322.419
322.604
321.587
320.967
320.772
320.251
319.626
319.186
320.899
318.889
318.026
318.019
316.121
316.781
315.957
316.697
317.245
318.094
318.515
317.925
318.717
318.082
318.449
317.645
318.084
317.529
316.015
317.458
317.118
317.396
314.429
314.136
313.008
313.887
313.288
313.732
314.667
314.606
315.026
315.487
315.424
314.667
314.517
314.502
315.778
314.016
312.879
314.036
313.393
314.142
310.874
310.525
311.224
311.252
311.355
310.991
310.904
311.791
311.495
311.542
312.472
313.024
311.725
312.301
310.613
311.214
309.849
310.834
310.469
309.691
307.95
307.572
308.687
307.79
309.049
307.705
308.296
307.782
307.306
307.804
308.75
308.467
308.075
309.193
308.496
308.654
308.402
308.403
307.688
306.954
304.453
305.32
304.177
304.696
304.138
304.637
305.01
305.187
304.842
304.773
304.809
304.071
306.302
306.482
304.729
304.123
304.835
304.515
304.648
303.979
301.405
300.784
301.477
302.203
301.316
301.589
301.825
302.024
302.353
300.333
301.777
301.49
302.102
301.718
301.627
301.759
302.159
302.378
300.752
302.841
323.62
322.971
323.085
322.699
323.879
324.529
323.804
325.418
324.278
325.652
324.947
326.254
324.72
325.581
325.294
322.914
323.721
323.045
323.898
323.565
320.747
319.348
320.735
319.4
319.825
320.668
321.467
321.163
321.293
321.736
321.627
323.18
321.442
322.459
320.579
321.123
320.017
319.996
319.361
321.533
316.899
317.549
316.608
317.685
317.7
318.106
318.474
318.388
318.349
318.848
318.05
319.843
318.297
319.221
319.016
317.823
317.1
316.894
317.867
316.687
313.955
313.286
313.864
313.99
314.34
314.235
314.371
314.803
315.393
315.479
315.773
315.885
315.767
315.261
313.32
314.733
313.949
314.597
314.149
314.255
311.227
310.53
310.769
310.725
310.95
311.533
311.364
309.883
311.86
312.109
312.498
311.857
311.161
311.188
312.066
311.845
310.806
310.773
310.813
311.144
308.632
307.63
307.057
307.876
308.678
308.36
308.056
308.558
307.677
308.034
308.79
308.58
308.613
308.904
308.604
307.479
308.442
307.625
306.767
308.582
304.473
305.641
304.083
305.193
304.847
305.174
305.383
305.564
305.271
304.576
306.05
305.844
304.042
305.316
304.977
304.961
304.686
304.281
304.865
304.18
302.272
301.378
302.633
302.102
301.098
300.967
301.584
301.624
300.934
302.28
301.717
301.742
301.522
301.06
303.249
301.593
299.828
301.408
301.795
301.095
323.857
323.984
323.414
324.441
324.653
324.123
325.183
326.277
324.919
327.565
327.571
326.157
325.509
324.744
325.747
324.595
324.594
324.044
324.098
324.117
321.314
320.415
320.793
320.239
321.286
322.066
322.064
323.515
324.248
321.4
324.226
322.322
322.342
322.505
322.307
320.303
321.82
320.428
320.886
321.342
318.434
317.748
317.93
316.361
317.291
317.469
317.439
318.5
318.006
318.494
319.463
318.361
319.395
319.039
317.501
317.195
317.398
316.92
317.966
316.891
315.286
314.271
314
314.26
315.895
315.36
316.469
316.083
315.472
316.476
317.659
317.697
315.817
316.833
314.777
314.789
315.144
314.078
313.91
315.219
310.735
311.364
310.773
311.052
312.137
311.683
312.004
312.117
312.557
312.839
312.722
312.405
313.083
312.151
311.975
311.996
311.334
311.364
310.422
311.947
308.446
307.29
306.991
308.539
307.852
308.172
307.979
308.319
309.132
309.397
308.441
309.068
308.975
309.242
307.38
307.692
307.591
307.773
308.027
307.601
305.296
305.26
304.149
305.298
305.016
305.306
304.28
304.456
304.305
306.254
304.646
304.65
305.106
305.634
305.331
304.025
304.579
304.367
304.585
306.165
301.716
301.904
301.293
302.027
301.94
301.777
301.106
301.362
302.926
303.611
300.984
303.329
301.649
301.194
301.354
302.249
301.826
301.471
302.2
300.882
325.004
325.342
324.857
323.646
324.053
324.129
326.13
324.497
326.707
327.965
326.639
327.916
326.339
325.931
326.29
325.142
325.041
324.707
324.195
323.721
321.873
320.387
320.193
320.687
321.502
321.338
321.793
321.756
323.668
322.259
321.844
323.413
321.873
323.212
321.487
321.502
320.319
321.866
320.034
322.466
317.941
317.223
317.524
318.735
317.598
317.713
319.791
318.93
319.996
320.148
320.73
319.547
319.097
319.774
318.928
317.172
318.752
317.239
317.29
316.61
315.028
313.821
315.444
313.748
314.34
315.041
316.385
316.947
315.294
315.242
315.687
316.24
316.507
315.549
316.233
315.306
315.97
314.058
314.679
314.621
312.184
312.101
312.235
311.418
311.117
312.073
313.02
311.769
312.373
312.834
312.625
312.786
312.424
312.685
312.228
312.144
311.578
311.961
310.318
310.872
306.837
309.119
307.944
307.659
308.422
308.378
308.891
308.107
308.315
307.851
309.098
308.319
310.223
309.171
309.318
308.195
308.628
306.99
307.957
307.41
305.504
305.775
304.148
304.142
304.248
304.147
305.856
305.442
305.181
304.787
305.728
306.128
305.455
305.848
305.086
302.836
305.176
304.081
304.982
305.122
301.393
301.683
302.16
301.381
301.937
302.068
301.605
300.858
300.999
301.672
302.327
301.124
301.801
301.041
302.763
301.649
300.976
302.301
301.061
302.209
325.667
325.992
325.988
325.614
325.124
325.341
325.673
326.549
327.546
326.471
326.966
327.44
326.728
326.56
325.753
325.154
325.679
326.535
324.684
325.952
321.584
320.466
321.548
321.41
322.249
321.612
322.345
322.177
324.337
322.629
322.438
323.696
322.236
323.325
321.65
324.018
321.522
322.726
321.008
323.035
318.234
318.843
319.102
319.281
318.218
319.218
320.768
320.636
319.811
318.747
319.806
320.773
320.184
319.287
319.924
318.871
318.213
318.735
317.47
318.382
315.88
315.064
314.704
315.443
315.221
314.995
315.844
315.191
315.854
316.482
316.598
317.179
316.605
318.079
316.338
315.21
316.318
315.105
315.052
315.808
312.157
311.521
311.879
311.814
312.612
312.045
311.931
312.941
311.649
313.584
313.111
313.46
312.759
311.468
310.889
311.183
312.129
311.379
311.005
313.002
308.364
308.94
309.023
308.799
307.922
310.604
308.06
309.311
308.846
310.15
308.942
308.935
309.06
309.087
309.256
309.019
307.19
308.172
307.211
307.384
305.563
305.203
305.019
304.547
305.019
305.655
304.902
305.965
306.205
305.434
306.588
305.706
304.866
305.388
305.607
304.57
306.6
305.638
305.282
305.422
301.873
302.448
303.053
302.393
300.628
302.992
301.084
303.456
302.265
301.649
301.881
301.729
301.52
302.059
301.985
301.674
302.005
301.855
302.601
300.182
326.618
326.222
324.921
325.561
325.677
325.597
325.415
327.157
326.977
328.107
328.569
329.048
327.701
326.468
326.771
325.417
324.62
325.911
324.381
326.138
322.699
323.023
322.252
321.291
322.419
322.994
322.728
323.7
323.603
323.836
323.545
324.515
323.631
324.279
324.18
323.953
322.481
322.122
322.242
323.024
319.314
318.391
319.814
319.54
318.739
318.707
320.172
320.889
320.127
319.738
321.289
320.296
320.349
320.227
319.393
319.013
318.993
318.021
319.304
319.052
315.84
316.133
316.555
314.914
316.251
315.289
315.446
317.256
317.061
317.284
316.48
317.229
316.371
316.454
316.265
315.074
315.84
316.057
315.462
316.274
312.232
311.854
311.501
310.956
311.316
312.924
313.617
312.287
313.597
313.547
313.291
313.904
314.228
313.649
312.524
312.506
310.981
312.347
312.175
312.753
309.017
308.603
308.89
308.262
308.747
308.777
309.361
309.346
309.731
308.546
310.566
309.303
309.426
310.015
308.163
307.714
308.918
308.745
309.303
307.125
305.867
305.223
304.809
304.182
306.082
306.022
305.522
304.934
306.396
304.594
304.656
305.114
305.965
305.67
306.022
305.544
304.638
304.821
305.488
305.588
300.915
301.993
302.288
302.583
300.606
301.519
301.912
302.115
302.64
301.903
301.58
302.305
302.267
301.754
302.014
301.385
301.65
302.933
301.066
302.613
326.923
326.438
325.866
326.243
327.246
327.472
326.805
327.009
327.872
329.483
328.032
327.261
327.095
326.998
326.805
326.435
325.641
326.439
326.437
326.806
322.248
321.846
322.119
322.429
321.854
322.962
323.914
323.224
325.346
323.31
323.685
323.858
323.58
322.838
322.852
323.647
322.547
323.349
322.009
324.593
319.683
320.082
318.832
320.144
319.26
319.559
320.2
319.628
321.17
321.165
321.885
320.769
322.178
321.275
320.329
319.557
318.368
318.117
319.825
318.777
315.456
316.903
315.237
315.694
315.548
315.775
316.555
316.892
317.322
317.05
316.58
317.978
317.528
316.965
315.95
316.23
317.193
315.922
315.591
316.412
312.737
313.431
312.812
311.614
312.434
313.095
312.554
312.965
313.289
314.295
312.599
315.212
313.018
313.362
313.569
312.221
311.899
312.776
312.726
312.846
308.755
309.141
309.571
308.811
308.822
309.549
309.934
309.362
309.001
309.103
308.085
310.842
310.105
309.458
309.403
308.942
309.11
308.324
309.319
309.334
305.4
305.221
305.142
306.269
305.648
305.512
305.583
305.913
305.372
306.068
306.272
305.598
305.402
306.509
306.971
304.433
305.578
305.427
306.261
305.049
301.837
301.631
302.085
301.695
300.649
300.319
301.977
303.237
302.817
302.147
302.619
302.518
301.339
301.408
302.207
302.533
302.286
301.849
301.54
301.874
326.39
328.037
326.753
327.66
327.049
326.981
327.742
327.478
327.527
329.428
328.424
328.787
328.073
328.104
327.459
326.937
326.52
326.359
326.427
327.171
323.964
323.493
324.174
323.999
323.437
323.511
323.232
324.363
324.376
325.431
325.485
324.854
325.49
323.614
324.26
324.744
323.507
323.697
322.711
324.644
319.695
320.965
320.244
319.856
319.107
320.493
320.391
320.315
320.372
320.733
320.689
321.395
320.73
321.619
319.863
320.427
320.028
319.868
320.062
320.609
316.567
317.482
317.296
315.176
315.423
316.223
316.488
317.107
316.22
317.859
318.126
317.899
317.428
317.811
316.456
316.831
315.634
315.697
316.701
316.611
314.074
313.17
313.113
312.614
311.967
312.804
312.856
313.628
312.841
314.369
312.739
312.983
312.525
313.081
312.817
314.216
311.77
313.085
312.774
313.279
309.61
308.52
310.233
309.599
309.75
309.644
308.807
310.931
310.278
308.717
309.671
309.178
309.861
310.045
309.789
308.952
308.333
309.256
308.959
310.074
305.843
305.291
305.319
306.11
306.286
304.253
306.053
304.804
305.3
306.17
305.678
306.503
305.248
305.976
305.504
305.82
304.571
305.731
305.217
305.539
302.871
302.271
302.444
301.984
302.841
301.856
301.312
301.147
301.571
301.211
300.211
301.633
303.817
301.488
301.505
301.781
301.064
302.174
302.874
301.153
328.861
328.512
328.642
327.098
328.749
327.253
328.83
328.464
329.125
328.189
329.611
328.407
328.198
328.812
328.422
326.7
328.097
326.813
327.988
326.677
325.443
323.696
324.401
323.794
324.311
324.419
324.24
324.239
324.947
324.68
324.278
325.25
324.4
324.885
323.574
325.027
323.936
324.834
323.315
325.085
320.461
320.466
320.139
320.794
319.73
320.906
321.464
320.142
321.841
322.087
322.094
320.531
322.609
321.626
320.539
319.635
321.018
319.18
319.866
321.013
317.772
317.778
316.13
316.598
316.126
316.631
317.893
317.158
317.446
317.301
317.17
317.642
317.122
318.21
317.377
315.91
316.394
316.765
316.391
316.045
314.424
313.624
313.069
312.723
313.507
313.29
313.474
314.41
314.488
313.336
312.697
314.403
314.464
313.154
313.349
312.678
313.391
312.255
313.34
314.143
309.271
308.742
309.004
308.198
309.29
309.591
309.401
310.024
308.986
310.513
309.766
310.743
309.409
310.38
309.783
310.215
309.159
308.389
309.69
309.215
304.846
305.337
304.89
305.224
305.468
305.599
307.235
306.186
306.01
305.025
306.031
306.164
306.359
306.535
305.692
305.176
305.752
305.958
305.856
306.811
301.008
302.097
300.889
301.822
303.263
301.531
301.603
301.778
301.487
302.272
301.249
302.88
302.248
301.229
301.374
301.96
302
302.955
302.036
300.852
327.303
328.398
328.446
327.793
328.119
328.258
328.45
328.327
328.092
330.276
328.748
329.765
328.457
327.822
328.36
327.887
327.997
328.581
327.657
328.07
324.841
325.093
325.742
324.558
324.006
324.334
325.2
325.574
324.308
326.084
324.955
324.814
324.964
325.848
324.415
324.739
323.989
322.245
324.17
323.559
321.056
320.577
321.039
320.278
320.329
320.07
321.258
322.047
321.348
322.676
321.191
321.958
320.881
320.964
322.243
321.758
320.7
319.756
320.752
320.646
318.773
317.093
316.104
316.937
317.337
316.126
317.672
317.806
317.275
317.579
318.19
318.295
318.212
316.753
317.695
317.1
316.453
316.882
316.849
316.89
312.907
312.748
314.693
313.63
314.212
313.188
314.197
312.972
313.886
314.497
314.406
314.088
312.996
314.845
313.841
313.843
313.825
312.716
312.862
313.117
309.274
310.546
310.158
308.582
309.761
310.422
310.534
310.213
310.313
309.542
309.121
309.322
309.721
310.591
309.379
309.926
309.433
309.974
310.019
309.588
306.201
305.568
306.438
306.482
305.641
306.164
306.22
306.07
305.805
305.636
306.469
305.885
305.581
305.229
305.563
306.275
306.993
306.368
305.954
305.418
301.889
302.134
302.97
300.996
302.448
301.55
302.69
302.73
302.438
302.204
302.039
302.24
302.289
302.13
302.245
302.022
301.568
302.178
302.12
303.053
329.995
329.328
329.361
328.675
328.563
329.019
329.189
329.379
330.187
329.848
329.851
330.144
330.175
328.281
329.788
328.822
327.498
327.639
328.122
329.042
323.939
324.406
325.833
325.197
324.87
325.931
325.761
325.628
325.628
326.408
326.711
326.351
325.963
326.223
325.261
324.102
325.409
325.401
325.165
324.176
321.924
322.865
321.53
320.999
321.35
322.419
319.979
322.579
322.129
321.991
322.375
323.164
321.382
321.072
320.763
321.288
320.507
321.249
322.483
321.324
317.85
318.135
316.774
318.209
317.675
317.899
317.246
318.099
317.997
318.234
317.603
317.526
318.345
317.978
317.365
317.563
317.252
317.7
317.424
316.771
313.616
313.884
312.489
313.721
312.575
313.568
313.128
313.38
314.104
313.482
312.913
312.956
314.048
313.669
313.997
313.805
313.343
312.96
313.833
314.978
310.106
310.117
309.533
309.63
309.935
309.831
309.582
308.591
311.261
309.531
308.847
309.872
309.855
309.923
311.204
311.121
308.816
309.74
309.401
308.842
305.851
304.942
306.517
307.437
306.401
305.319
306.683
305.934
305.713
306.298
306.603
305.897
306.597
305.849
305.766
305.788
306.409
305.306
305.384
307.047
302.685
302.459
301.967
302.731
301.555
302.357
301.174
302.288
302.416
301.675
301.94
301.258
301.531
301.136
301.055
301.678
302.273
302.219
301.578
302.664
330.285
330.096
329.408
328.893
329.383
328.888
329.245
330.322
330.663
330.346
330.728
330.558
328.481
329.328
329.498
329.418
328.233
328.807
329.002
329.595
326.708
325.961
325.308
324.508
325.309
325.927
326.55
325.95
325.785
326.395
326.237
326.645
326.631
326.112
325.663
326.156
324.143
324.952
324.691
325.29
323.17
321.898
321.771
322.168
322.162
322.129
321.814
321.685
322.131
321.864
323.263
323.174
321.356
322.39
322.089
320.645
321.306
321.452
321.005
321.29
317.626
317.506
317.89
317.627
318.954
318.831
318.638
317.927
318.823
317.697
318.205
317.917
318.999
317.754
317.829
318.376
316.621
315.922
318.304
318.212
313.539
313.96
312.725
314.473
312.846
313.738
314.236
315.07
314.162
313.765
313.599
314.542
314.955
314.563
314.142
314.738
314.233
313.903
314.012
314.279
310.205
310.908
307.981
309.577
310.557
310.533
310.355
310.143
309.675
309.795
310.192
309.903
310.048
309.511
310.733
309.73
309.887
310.474
310.003
310.382
305.799
305.837
305.887
306.339
305.892
306.642
306.809
306.558
307.324
306.139
307.196
305.905
306.421
306.824
306.301
305.662
305.406
306.956
306.371
306.004
301.69
301.942
302.432
301.672
302.397
301.858
301.491
302.431
303.414
302.263
300.887
302.51
301.602
301.926
301.828
302.429
302.425
302.041
301.438
301.625
331.009
330.902
329.8
330.155
330.177
329.378
331.788
331.217
330.54
329.313
330.905
331.217
329.557
329.753
329.804
329.487
328.686
329.548
328.747
330.606
326.646
326.849
326.11
327.032
325.998
327.141
325.665
327.451
326.325
327.708
327.568
327.212
327.59
325.649
327.141
325.052
326.68
327.032
326.582
325
322.652
322.264
322.514
321.975
321.211
321.728
322.537
321.19
322.957
321.807
322.212
322.863
322.85
321.557
321.631
321.956
321.476
322.516
323.175
321.731
318.424
317.806
319.024
319.321
318.461
318.612
318.725
318.399
318.097
317.779
318.481
317.224
317.428
318.324
318.165
317.5
317.734
317.976
317.659
317.912
315.14
315.236
314.281
313.556
314.555
315.323
313.84
314.032
313.677
315.608
315.897
314.302
313.519
313.073
314.498
313.932
314.177
313.856
313.942
313.364
309.842
310.574
310.7
309.943
310.587
310.627
309.52
309.461
310.568
309.459
311.282
309.34
309.916
310.161
310.764
309.371
309.651
310.371
309.776
309.277
305.24
306.756
306.022
305.468
306.421
306.014
306.239
305.665
305.943
306.9
306.387
306.165
307.231
306.617
305.958
306.027
306.46
307.193
306.618
306.15
302.868
301.815
303.372
301.748
301.53
301.806
301.891
301.829
302.265
301.912
301.592
301.715
301.852
302.45
302.648
303.018
302.873
302.736
301.284
302.453
332.552
331.183
331.18
330.466
329.112
330.233
329.752
330.211
330.779
330.937
331.843
331.308
330.172
331.383
329.751
329.995
329.164
329.629
329.836
331.539
327.427
327.631
326.643
325.829
325.647
325.241
327.069
327.929
327.793
326.793
327.206
326.254
325.945
326.275
325.414
325.415
325.805
325.252
325.541
326.138
323.641
323.347
322.29
321.657
323.35
322.283
322.277
324.409
321.735
323.025
323.173
322.625
322.493
323.209
322.78
322.382
322.611
322.679
322.15
323.347
318.955
319.515
318.19
317.836
317.518
319.715
318.397
318.806
319.129
319.197
318.805
318.669
318.888
318.382
318.953
317.782
317.942
318.753
317.84
318.957
314.254
314.862
313.981
313.589
315.564
314.63
314.767
314.625
314.037
314.275
315.315
315.849
314.779
314.773
314.335
313.491
314.974
314.199
314.351
313.568
311.558
310.393
309.507
310.037
310.189
309.5
310.731
311.232
311.018
310.945
310.097
309.457
310.38
309.757
310.541
309.915
311.054
309.382
310.022
310.219
305.889
305.992
305.81
306.092
306.902
305.429
305.911
306.455
305.687
306.05
305.481
305.96
305.37
305.311
306.184
306.019
306.416
306.163
306.919
306.648
302.184
301.638
301.563
301.684
302.38
301.327
302.084
302.414
300.186
301.628
301.861
301.901
301.62
301.638
302.102
301.668
303.747
302.579
302.557
302.225
)
;

boundaryField
{
    hotSide
    {
        type            fixedGradient;
        gradient        nonuniform List<scalar> 
400
(
321.511
322.87
325.591
329.677
335.133
341.965
350.181
359.788
370.794
383.208
397.037
412.289
428.971
447.088
466.647
487.651
510.105
534.011
559.372
586.191
323.738
325.08
327.767
331.802
337.194
343.949
352.078
361.591
372.498
384.81
398.537
413.687
430.268
448.289
467.755
488.672
511.043
534.872
560.161
586.913
326.149
327.47
330.116
334.091
339.406
346.071
354.099
363.503
374.296
386.491
400.101
415.136
431.606
449.52
468.885
489.706
511.988
535.735
560.948
587.63
328.704
330
332.597
336.503
341.73
348.292
356.205
365.485
376.15
388.215
401.695
416.604
432.954
450.753
470.009
490.73
512.919
536.579
561.714
588.325
331.33
332.599
335.142
338.97
344.099
350.546
358.332
367.477
378.003
389.928
403.271
418.047
434.27
451.949
471.095
491.712
513.807
537.382
562.439
588.978
333.918
335.158
337.643
341.389
346.414
352.74
360.392
369.397
379.779
391.562
404.765
419.407
435.503
453.065
472.101
492.618
514.622
538.114
563.096
589.569
336.321
337.531
339.959
343.622
348.544
354.751
362.274
371.142
381.385
393.031
406.101
420.618
436.595
454.047
472.983
493.409
515.33
538.747
563.663
590.076
338.36
339.543
341.92
345.509
350.339
356.44
363.847
372.595
382.718
394.244
407.2
421.608
437.485
454.844
473.695
494.045
515.897
539.253
564.114
590.478
339.852
341.015
343.352
346.885
351.645
357.665
364.985
373.643
383.675
395.113
407.984
422.312
438.116
455.407
474.197
494.491
516.294
539.606
564.428
590.758
340.643
341.795
344.11
347.613
352.334
358.311
365.584
374.193
384.176
395.567
408.393
422.679
438.443
455.699
474.456
494.722
516.498
539.788
564.589
590.901
340.643
341.795
344.11
347.613
352.334
358.311
365.584
374.193
384.176
395.567
408.393
422.679
438.443
455.699
474.456
494.722
516.498
539.788
564.589
590.901
339.852
341.015
343.352
346.885
351.645
357.665
364.985
373.643
383.675
395.113
407.984
422.312
438.116
455.407
474.197
494.491
516.294
539.606
564.428
590.758
338.36
339.543
341.92
345.509
350.339
356.44
363.847
372.595
382.718
394.244
407.2
421.608
437.485
454.844
473.695
494.045
515.897
539.253
564.114
590.478
336.321
337.531
339.959
343.622
348.544
354.751
362.274
371.142
381.385
393.031
406.101
420.618
436.595
454.047
472.983
493.409
515.33
538.747
563.663
590.076
333.918
335.158
337.643
341.389
346.414
352.74
360.392
369.397
379.779
391.562
404.765
419.407
435.503
453.065
472.101
492.618
514.622
538.114
563.096
589.569
331.33
332.599
335.142
338.97
344.099
350.546
358.332
367.477
378.003
389.928
403.271
418.047
434.27
451.949
471.095
491.712
513.807
537.382
562.439
588.978
328.704
330
332.597
336.503
341.73
348.292
356.205
365.485
376.15
388.215
401.695
416.604
432.954
450.753
470.009
490.73
512.919
536.579
561.714
588.325
326.149
327.47
330.116
334.091
339.406
346.071
354.099
363.503
374.296
386.491
400.101
415.136
431.606
449.52
468.885
489.706
511.988
535.735
560.948
587.63
323.738
325.08
327.767
331.802
337.194
343.949
352.078
361.591
372.498
384.81
398.537
413.687
430.268
448.289
467.755
488.672
511.043
534.872
560.161
586.913
321.511
322.87
325.591
329.677
335.133
341.965
350.181
359.788
370.794
383.208
397.037
412.289
428.971
447.088
466.647
487.651
510.105
534.011
559.372
586.191
)
;
    }
    coldSide
    {
        type            mixed;
        refValue        uniform 300;
        refGradient     uniform 0;
        valueFraction   uniform 0.991591;
        source          uniform 0;
        value           nonuniform List<scalar> 
400
(
300.009
300.002
300.018
300.014
300.018
300.007
300.012
300.019
300.014
300.012
300.016
300.008
300.015
300.024
300.008
300.016
300.023
300.014
300.024
300.018
300.011
300.017
300.013
300.002
300.015
300.014
300.007
300.012
300.016
300.014
300.021
300.017
300.014
300.019
300.018
300.018