/*--------------------------------*- C++ -*----------------------------------*\
| =========                 |                                                 |
| \\      /  F ield         | OpenFOAM: The Open Source CFD Toolbox           |
|  \\    /   O peration     | Version:  2212                                  |
|   \\  /    A nd           | Website:  www.openfoam.com                      |
|    \\/     M anipulation  |                                                 |
\*---------------------------------------------------------------------------*/
FoamFile
{
    version     2.0;
    format      ascii;
    arch        "LSB;label=32;scalar=64";
    class       volScalarField;
    location    "./ITHACAoutput/true/16.6";
    object      error;
}
// * * * * * * * * * * * * * * * * * * * * * * * * * * * * * * * * * * * * * //

dimensions      [0 0 0 1 0 0 0];

internalField   nonuniform List<scalar> 
3200
(
-0.812198
2.51596
2.32432
3.18519
2.0521
2.87625
2.30509
2.44104
3.03884
1.3299
2.53135
3.91465
1.9465
3.26459
2.94756
3.31722
2.13995
1.04596
0.643633
0.620516
1.4989
-0.409905
-0.381897
3.99826
3.75607
3.87617
3.56422
2.95598
3.26204
1.92753
2.44739
2.14528
1.86029
3.62608
3.08425
2.26123
0.680371
2.45459
2.2302
0.994444
-1.11692
0.359308
1.61634
2.65469
2.28794
2.66924
3.36316
3.04931
0.413126
2.32699
2.9666
1.88357
0.838685
-0.140148
1.52859
0.654871
1.60849
2.41728
1.09968
-0.578048
-1.20181
1.25109
1.58729
1.80115
2.04011
2.44724
1.96399
0.660087
0.668407
1.69744
0.433284
-0.831836
2.02479
2.59918
3.02781
-0.0284888
1.38299
0.733717
1.13002
1.24498
-1.50118
-0.431418
-0.0720141
2.34577
2.65294
3.24464
1.88978
0.414274
0.793205
2.35962
1.80879
2.41422
2.50295
-0.181865
1.83897
2.93318
1.906
1.3014
-0.482865
-1.77043
-2.23904
0.255847
1.99759
0.377975
1.74886
-0.898564
2.77435
0.882162
-0.748305
0.574553
-1.34645
0.981997
0.314967
0.399961
1.77896
-1.88549
0.0389569
1.46283
-0.520545
0.159396
-0.414786
-1.85475
0.808376
-0.610602
-2.33643
-0.501703
1.67577
1.35421
0.861176
0.533163
-1.3177
2.00834
-1.0921
0.184046
-0.650196
0.828631
0.839841
0.622009
1.09265
-0.666745
0.798207
0.410023
-0.00145483
0.112632
0.0288272
-0.241566
-0.335262
-0.54816
0.399123
-2.83579
1.48022
0.273122
2.45598
0.750222
-0.797861
-0.0651274
0.361125
-0.19227
1.45837
-0.887807
-1.80948
0.781016
2.99386
2.03077
4.3985
4.99256
1.96209
3.35418
2.31202
1.22631
3.24542
2.60764
3.28656
2.39727
0.404759
2.62353
4.28518
1.88842
0.484581
0.307879
-1.08254
-0.0266348
1.2078
0.393074
4.80255
-0.21307
4.31387
0.0515516
0.285068
0.133202
-0.454859
0.655294
-0.302782
2.99413
0.0170428
3.04264
0.0623916
1.419
-0.0293464
-0.8013
-2.96795
-0.882646
0.840162
3.26777
-0.0626638
0.338886
2.73186
0.689564
1.95606
3.45705
2.66384
2.03611
0.601267
1.30127
0.812695
2.85551
2.72305
-0.0409301
-0.231326
-1.65762
-0.469832
1.16479
0.0873939
2.54404
2.40925
1.7497
1.52106
1.77246
1.0416
0.463211
2.11305
1.48255
2.17402
1.31175
0.214077
1.50265
2.02047
2.74886
0.282805
-0.716893
0.267037
-1.35089
0.988244
1.97199
3.35889
0.130673
0.848397
2.67447
1.38986
2.64703
0.363294
1.50719
1.117
0.0217499
0.854483
1.61844
-1.38492
-0.0520258
1.05903
-0.310277
0.644032
-0.538877
1.68871
1.10583
1.68397
0.248146
1.34223
-1.78175
2.45607
1.77779
-0.468503
-0.551254
0.486289
1.19313
1.12051
2.45614
1.00645
1.03232
1.50022
-1.4447
0.758533
-2.5221
0.204547
-1.38956
1.12099
0.265232
-1.48719
0.206422
1.72717
1.86901
1.55664
0.609014
0.473967
2.85108
-0.655869
0.286157
0.00149271
1.09784
1.33105
0.208303
2.4535
-0.816656
-0.674505
1.03357
3.40036
0.676965
-0.415155
1.24405
1.44728
-0.683752
1.36577
0.783312
0.180357
-0.473565
-0.663103
0.169712
0.374666
-0.397037
-1.38612
2.47184
-1.57712
1.35925
2.47225
2.42655
3.19346
3.9594
2.40653
3.6661
0.174956
1.33289
-0.193973
0.206059
1.79719
1.99354
2.00337
2.92145
2.75607
2.56165
0.593434
-0.945388
-0.518439
0.722311
2.09734
3.1663
2.00503
2.88769
4.61115
2.83865
0.621539
1.21103
0.601472
-0.55744
0.660694
1.04611
0.643031
0.669377
1.84289
2.99912
1.1537
1.09831
-1.55721
1.90632
1.72127
0.678974
1.26718
3.57783
3.00998
2.96124
1.18236
-0.341268
1.46552
1.63395
1.15917
1.01066
1.09964
1.25318
3.26215
1.65217
2.80846
-2.20064
1.06489
1.14154
-0.194755
2.19215
0.787006
-0.210206
0.869652
1.14196
1.21062
1.76644
0.319898
0.700267
1.64375
0.0807808
0.0768297
-0.915881
0.88927
0.875902
0.744717
-0.997325
-2.07482
2.87261
0.505543
-0.375566
0.0160027
0.451265
0.920935
0.200173
-0.0968012
0.371526
2.30271
1.09221
0.149361
1.91021
-0.640475
-0.0223478
1.04131
0.23514
-1.40417
1.00113
-0.0396548
-0.755682
1.8642
1.51005
1.37846
1.5866
0.681839
-0.942872
0.0422233
1.41642
-1.39921
0.15513
0.0633628
2.26852
0.888585
-0.380282
-0.981481
0.385724
-1.2195
-0.0475625
-1.33846
0.277066
1.41236
-1.63375
-0.126694
0.212669
1.57258
1.55227
-0.519815
2.39787
1.63048
0.462358
0.44881
-0.744158
0.997421
-0.877564
-0.687857
-0.000493055
-0.456893
-2.56513
-0.0651912
0.252789
3.44455
-0.258866
-0.53975
-1.25722
-0.0293455
0.551631
0.0226361
-0.0816072
-0.0904093
-0.58266
0.763063
0.828392
0.11885
0.307709
-0.378414
0.968656
-0.433315
0.354731
-2.9267
0.295257
0.142525
4.28979
3.98041
1.54514
1.25045
2.67254
-0.155836
2.40956
1.22158
1.77474
1.51265
1.73937
1.38326
1.5407
2.15829
0.54035
-0.487711
-1.89244
-1.06782
-0.0714566
2.31249
0.268478
1.64782
-0.0182269
1.88487
-0.334064
-0.0749329
-0.39561
-0.121979
-1.89469
-0.482338
-0.563491
-0.305057
2.12914
0.0452716
-0.279679
0.0668728
0.080851
-2.02348
-1.49928
-0.87329
2.29029
1.29756
0.890576
2.69487
2.8623
-0.800384
0.0163162
0.146859
-0.917811
-1.75255
1.92764
-2.20811
1.02606
1.64979
1.64864
0.968142
-3.45393
-1.39903
-1.63663
-1.46052
4.4233
0.0702853
2.53396
0.520658
1.56191
-0.715146
0.150787
-0.461154
1.81736
2.02666
-0.232394
0.503189
-1.47963
-1.71136
-0.512715
-1.12453
-0.810795
-0.290092
0.24603
1.22287
1.91349
1.53606
1.943
0.415784
1.24704
1.13389
-0.696677
0.0722069
-1.52573
0.764315
1.19011
2.71328
0.846826
-0.807165
-1.50807
-1.57094
-2.27124
-0.0725259
0.116313
1.45594
-0.374087
0.761478
1.55694
-0.306635
0.899345
-0.47549
-0.120791
-0.571714
-2.01293
-0.682929
-1.62615
1.96271
-0.00108497
2.08026
0.14852
0.400028
0.290987
0.424584
0.00564054
0.632636
-1.04499
0.17341
-1.01633
0.808613
1.76113
-1.61323
0.893993
0.149552
-0.370363
0.142859
1.18907
-1.33853
-1.65367
0.498192
-0.154555
0.528835
0.656211
1.19329
-2.59273
1.72121
-0.0478492
-1.33197
1.19427
0.475532
2.08295
1.28143
-1.37705
1.42938
0.688794
-1.06085
1.91405
-0.91414
0.533644
-1.5641
1.13487
0.0225962
0.962564
-2.39376
0.0704531
2.54034
1.56569
0.700457
0.99799
-0.0228379
-0.766602
2.2671e-05
1.49885
-0.703809
-0.503194
0.645588
1.37294
1.80226
3.83112
3.21989
0.777418
0.676721
-1.19399
-2.50929
-0.884745
2.14008
1.6688
1.59468
3.43361
0.32129
-0.0527909
-0.190965
1.81491
0.0501265
0.695331
-2.51809
0.902892
-0.346393
0.287042
3.28101
0.920278
-2.28487
-2.45745
-1.10598
-1.52979
0.886954
-1.23671
1.16566
-0.296399
1.03121
-1.48454
-2.12356
-1.4255
0.150105
0.733046
0.825188
1.53351
1.14852
0.957107
1.28783
-0.315304
-1.07617
-1.18642
-2.98202
0.99285
0.664575
-0.710774
0.427142
1.57229
-1.42665
0.590142
-0.986045
1.78748
-0.0402159
-2.11953
-2.27459
1.89097
0.328826
-0.368967
1.14422
-0.26868
-0.838082
-1.42097
-1.08842
1.19384
0.473863
1.43952
0.806847
1.80095
0.198259
-1.06954
0.218908
-0.102663
-0.668274
-1.68057
-0.390205
2.76074
1.47945
0.957819
0.31866
0.0217715
0.838882
-1.05132
0.326344
-1.01926
-0.783939
0.692032
2.44641
0.772199
-0.0237155
-0.705562
-0.617016
2.48255
0.689729
-1.40803
-3.02558
-0.78302
-0.685302
0.142236
0.835437
-1.616
-1.17607
-0.2886
0.851823
-0.81287
0.714239
1.31337
-1.43975
-0.38224
-0.711984
-0.0705851
-0.74404
-1.4916
1.24778
2.13818
0.690218
0.0425205
0.0576412
-0.805526
-0.325804
0.012653
0.0465749
-1.1404
2.02709
1.33467
-0.31175
-1.54468
1.153
-1.48484
0.0860581
0.379589
-0.0966694
1.04687
0.116133
-0.844758
0.213936
0.678811
-0.187838
-0.036545
-0.848711
-0.750899
1.58023
-0.163543
-1.70256
0.64562
1.5972
1.00234
1.7836
2.21333
1.06582
2.78213
-0.288325
-0.60467
-2.95682
-2.41719
0.145818
-0.0997706
0.105499
-0.423223
-0.112344
1.3592
-0.330213
-1.152
-2.60721
0.0706157
-1.79853
-0.386961
0.220173
0.0655803
0.228028
0.0499576
0.69316
0.0334752
0.654666
-2.45886
0.128266
1.00532
-0.552739
0.908033
-0.0481387
1.20685
-0.353389
-2.37268
0.704574
-1.8427
0.739693
-0.996393
1.00209
0.103639
1.67282
-0.693241
0.0728598
-2.07644
-1.97804
1.30232
1.72506
0.290519
0.715598
0.301135
-1.82652
0.946159
0.528309
-0.14398
-2.23965
-0.312253
0.0308322
-0.19446
-0.479787
-0.117036
-2.00334
-2.47128
-0.483277
1.61187
-0.41267
-0.38837
1.59484
0.940838
-0.920551
0.0502669
-0.115115
0.0369331
-0.779479
-1.60472
-1.03462
-2.1171
-0.765748
-0.563655
1.75798
0.737194
1.10827
0.0210861
0.305267
-2.3146
-0.391374
-0.0270251
-1.62387
1.2854
-0.298484
-1.16776
0.855148
0.196118
-0.147561
-1.74095
-1.16318
-0.10561
-0.137664
-1.03898
0.566947
1.74296
2.23562
0.454027
-1.75469
-1.52571
-2.1509
-0.522926
-0.736124
0.655781
0.25578
-0.399251
-0.21722
-1.75901
1.59986
-1.52089
0.112146
0.641258
-0.186527
2.1337
1.60971
1.53605
2.03919
0.963818
-0.934063
-1.95877
-0.127095
-0.287468
-0.635216
1.49374
1.08478
-0.262082
-0.916411
0.192818
-2.0531
-2.36026
0.312281
0.939875
0.814226
-0.82568
0.822862
-0.422372
-0.383333
1.60611
-0.692828
0.612974
1.43348
-0.779859
0.22031
0.393817
-0.121235
-0.904473
0.374003
0.759637
-0.620641
0.322089
-3.17548
-1.04076
1.56005
0.0912459
1.69902
0.85829
0.202909
0.202602
-1.19591
-2.4047
-1.9213
-3.47913
-0.0712035
0.377194
-0.67646
-1.90136
-0.952034
-0.0870438
-1.13077
-0.386145
-1.58939
-1.56194
-0.721687
1.38578
-0.624554
-0.435985
-1.04042
1.00168
-2.57661
-0.215186
-1.814
0.865239
-1.51015
-0.0620477
0.717717
-0.206681
-1.93078
-1.50233
-1.82421
-2.88889
-2.42838
-2.07406
0.361979
-0.141025
0.395993
-2.15636
0.4001
0.470788
-0.870025
-1.28414
-1.84412
-0.878118
0.849735
-1.73425
-1.44775
-0.441884
0.518851
0.595888
-1.67891
-4.04735
0.0111265
-2.14526
0.215969
1.74183
1.41075
-0.281488
0.474228
0.784608
-1.78248
-2.09578
-0.234253
0.194641
0.225342
-0.377177
-4.05227
-1.56263
2.25219
0.451406
0.626767
-1.69617
-1.41395
-0.181914
-2.36936
-0.00381704
-1.87143
1.21874
0.240685
-1.69341
1.12653
-0.0322959
-2.0594
-1.82259
0.410141
1.626
1.10582
-1.79665
0.693725
-0.842279
-1.58451
0.967402
-1.93447
0.0148865
-0.121439
0.265414
-0.984804
-1.11065
-1.62283
-0.832128
-2.35025
0.571616
-1.93647
1.20593
0.108252
-0.998056
0.717329
-2.3774
0.761648
-1.54088
-2.00388
-0.686386
0.426471
-0.667152
-0.164458
0.825753
0.350306
-1.23169
-0.171393
0.174016
-0.0670124
0.299773
-1.05524
1.51735
-1.3633
-1.72411
-1.45706
-0.0893295
0.0508066
-0.174694
-0.704633
-0.877416
-1.07735
0.998132
-0.889649
-1.55106
1.06461
0.365919
1.14469
-0.860697
1.74736
-1.18042
0.171165
-0.634483
-0.41837
0.889677
-1.94507
1.31289
0.457813
-0.890538
-1.28149
-0.26596
-2.67662
-0.15545
-3.45181
-0.569314
-0.264689
-1.37259
-2.03291
-0.186374
-0.594413
-1.15574
-3.36357
-1.73998
-0.817881
-0.678936
-1.03155
-0.866791
-1.25014
1.0204
-0.132981
-4.67599
-4.09669
-0.495926
0.325983
0.227193
1.46799
-0.345461
-0.110541
0.0727249
-2.98545
0.1683
-0.0323634
-1.70627
-0.900775
-2.82993
-0.279321
0.0180574
0.0984101
0.73937
0.365343
-3.86852
-5.52799
-1.35161
-0.882958
-0.414232
-1.2324
-0.433861
-0.655588
0.0429084
-0.905834
0.522086
-1.08822
-0.104227
-2.55189
-2.04142
-0.431245
-0.0519854
-1.91748
-0.239082
-2.64648
-1.69255
-1.37153
-2.49102
-2.6858
0.367939
-0.112263
0.67044
-0.625545
-2.21337
-1.73247
-1.3571
0.340924
-0.844627
-2.09359
-1.11223
-1.34792
-1.06915
0.561958
-1.9661
-2.62801
-2.86756
-1.84572
-1.66369
-2.72128
1.04921
3.04597
1.04612
0.727379
-1.47168
-0.190832
-1.93685
-0.219134
-0.525601
-1.0628
-1.00933
-1.01709
0.313218
-0.762611
-0.194665
-1.51938
-3.12728
-1.41255
-0.423076
-0.863551
1.69911
-0.995454
-0.29298
0.500194
0.204195
-0.413343
-0.851317
-0.714048
-2.18443
-2.1815
-0.184699
-1.38391
-0.364138
1.11647
0.422857
-2.05853
-0.0853912
-0.363085
0.309216
-1.12294
-1.49368
0.55005
-1.10386
-1.09047
-1.4592
-0.666891
-1.40726
0.990616
-1.29467
-2.41083
-2.75847
0.727931
-0.699155
-0.808849
-0.603982
0.162344
-0.142884
-0.0583564
-0.829824
1.10726
0.110989
0.581302
-0.447305
1.96863
-1.22546
-0.190585
1.41145
-1.73731
-0.685272
-1.87951
-0.392909
-0.122409
0.260521
-0.506508
-1.64926
-0.188522
1.15988
-5.43436
-1.66156
-2.56536
-0.470949
-0.592522
-0.80232
-1.23941
0.691287
-2.56614
-1.68609
-0.894762
-0.38695
-3.2201
-1.36656
-1.97861
-0.8253
-2.60724
-2.64605
-2.79373
-3.59985
-2.97942
-3.92073
-2.46572
0.030089
0.31096
-2.16008
0.136891
-3.16733
-1.75739
-2.27496
-2.83978
-2.49804
-1.55329
-2.35022
-0.125898
0.798975
-0.951273
-3.43206
-4.11602
-2.97202
-1.66143
-3.88606
-0.758829
-1.6292
-0.136953
-0.729561
0.879668
-1.04939
-2.92604
-1.4059
-1.35317
-1.63572
-2.13125
-2.44452
-0.577634
-2.33156
-2.35915
-0.297577
-1.86434
-4.49727
-2.80156
-2.13515
-0.874459
-1.63723
-2.99244
0.152779
-2.2353
-1.31772
-1.77548
-2.35332
-2.08747
-3.10394
-0.50405
-1.44941
-1.61807
-1.66216
-0.90614
-3.68267
-1.7946
-4.30351
-2.63411
-1.44358
-0.743934
-0.409088
0.187969
-2.19233
-0.436269
0.596746
-0.816444
-0.965715
-2.08249
-0.785848
-1.55848
-1.22288
-2.29369
0.0608951
-0.409827
-0.665824
-3.52972
-0.298337
0.76877
-1.94781
0.5785
1.33571
-0.494134
-2.24674
-0.222941
-0.660421
0.059122
-0.254379
-2.37642
1.03502
-1.952
0.635937
-1.79228
0.845109
-0.95488
-1.75396
0.160062
-0.925822
-0.742548
0.626482
-1.39107
0.663882
-0.831978
-1.54207
-0.297023
-1.29741
1.119
-1.09635
-0.688068
-0.339204
-1.93399
-0.197424
-1.57588
-0.500217
-0.795385
1.3489
-0.582333
-0.174545
0.305206
0.898511
0.185079
-0.237634
-1.32071
0.872236
0.544763
-0.994488
1.49027
1.21349
-0.129238
-0.933001
-0.337317
0.132512
-0.030595
-1.18477
1.09144
1.7693
0.418153
0.195846
-2.14262
-2.74416
-1.04565
-2.27605
-1.90201
-1.30505
0.103845
-3.60309
2.20824
-2.25544
-3.38911
-2.49977
0.518922
-2.02289
-1.44403
-0.965528
-1.59989
-1.12195
-2.65651
-3.79198
-4.36608
-0.0508127
-0.85776
-0.345829
-1.39119
-0.428497
-0.477768
0.217303
-2.77107
0.015655
-0.701324
-2.58439
0.206033
-0.607855
0.312778
-0.952133
0.134704
-2.96968
-0.509222
-3.50984
-1.68185
-2.47628
-0.370345
0.161369
-1.27542
-0.916361
-1.61139
-0.774469
-1.70294
-1.40857
-2.22572
-2.49984
-0.410372
-2.17782
-2.27967
-0.458266
-1.27038
0.0987023
-3.13111
-4.30695
-2.58806
-1.5048
-1.03684
-1.28154
-0.422095
0.0673479
-1.16555
-0.27187
-0.885808
-1.832
-1.50729
-1.24532
-1.04503
-0.690039
-1.71266
-2.25111
-0.895575
-0.626971
-0.86984
-1.26049
-2.72521
-0.649386
-0.693458
-1.70229
0.235997
0.308723
-0.285631
-0.42055
-1.05152
-0.085498
-0.680577
-1.8109
1.4537
-1.58901
-1.82109
0.107532
-1.90555
0.287592
-2.60452
-1.48629
-0.243718
-2.36301
-1.9071
-1.62133
1.35142
0.990281
-0.0823823
0.051734
0.902544
0.510655
-0.993002
-3.31071
-0.522448
-1.25798
-3.16999
1.22618
0.304555
-1.0591
-1.04827
-2.53243
0.331609
-0.0658323
0.0325964
-1.79454
1.29936
0.19616
1.20433
2.35142
1.15686
0.0887619
-2.00095
0.257176
-0.469762
0.268845
-2.46133
-1.57092
-3.09322
-2.24996
-0.667621
1.53344
0.622381
1.29157
1.33657
0.482402
0.250746
1.87824
-0.32518
-0.512852
-0.980228
-0.470219
0.332463
-2.28202
-0.0497901
-1.05568
-1.95521
-1.26626
2.23654
0.441652
1.16293
-0.360268
-3.74573
-3.19607
-2.10151
-1.67352
-2.62371
-0.461567
-1.88546
-0.409374
-2.46458
-1.02573
-2.69846
-3.16902
-3.23415
-1.05433
-0.794359
-2.30811
-1.89466
-2.28824
-3.37154
-3.36195
-1.29677
-0.466039
-1.00042
-0.235858
-1.0491
0.278643
-0.0778013
-0.0222296
-2.2401
0.224628
0.169682
-1.56458
-0.108141
-1.7964
-0.612108
-4.389
-0.485764
0.292289
-0.802921
-4.07529
-1.7079
-0.979491
-1.24602
-1.03882
-3.72475
-1.46392
0.245958
-0.189804
-1.52443
-2.32498
-3.00513
-2.46835
-2.92147
-1.30864
-1.27399
-1.80114
-2.19366
-1.92739
-2.09522
-3.20908
-4.11157
-2.5936
-0.587732
-1.47881
-2.54422
-1.72025
-0.472772
0.445936
-3.21701
-0.647244
-2.3006
-2.51832
-0.84059
-2.25296
-0.83642
0.365805
-3.4075
0.918435
-1.86446
-2.15612
-0.498614
-3.71441
0.101761
0.0378301
-4.08457
-0.754747
-1.23555
-0.811574
-1.07856
-0.168982
-3.37391
-1.50358
0.333031
-1.28208
-0.144007
0.0274572
-1.08397
-2.05506
-1.76786
-0.956287
-0.674666
-1.96837
-0.672315
-1.15802
-1.29729
1.14028
-0.29721
-0.218836
-0.369121
0.355742
-0.974322
-0.0636596
0.246432
-0.251347
-0.159825
0.0174992
-1.1856
-1.9023
-0.513625
-1.52026
-0.970048
0.948802
-0.108977
-1.44083
0.0145726
-0.986808
-1.40529
0.691648
-1.88505
-1.03422
0.406563
-2.48337
-2.41905
-3.66579
-0.521621
-2.00349
-1.23393
-1.12855
-1.26585
-1.32789
-1.89237
0.537603
-0.86106
-0.160623
-1.30711
0.972341
-0.261549
0.185645
-1.86422
-1.19297
0.279348
-1.58788
1.11651
-0.435894
-1.0166
0.226317
-0.59467
0.276292
-2.68973
0.758772
-5.31779
-4.59439
-2.51989
-2.56196
-2.94565
-0.863496
-2.50412
-1.30217
-0.924365
-0.986068
-3.33879
-1.79866
-0.693811
-2.76534
-2.29465
-1.60521
-2.67336
-5.36361
-3.23461
-5.47854
-6.94662
-1.85162
-1.41367
-1.68193
-0.712176
-1.32095
0.464282
-3.52138
-0.995856
-1.67791
-1.58545
-1.47852
-1.77152
-4.55897
-3.19389
-0.454107
-3.03239
-2.88613
-2.99085
-5.29787
-5.64576
-3.21995
-4.52248
-2.44642
-1.52555
0.504047
0.269204
-1.16126
-2.1229
-2.17266
-1.58545
0.468551
-1.46586
-0.877066
-1.96792
-1.34135
-2.77436
-3.35438
-4.82176
-3.39862
-2.70446
-4.64387
-2.39281
-3.16358
1.36793
-0.531913
-1.65919
-2.29296
-1.78274
-1.11059
-0.329053
-0.949923
-1.88224
0.625509
-0.529988
-1.84288
-0.0946749
-0.211893
-2.76918
-3.20156
-1.92865
-2.97327
-0.772574
-0.33063
0.932985
-1.02073
-1.39812
-0.620058
-0.79974
-0.269357
-2.90118
0.49846
-2.93047
-2.44226
-1.6558
-0.877798
1.08867
-2.18105
-2.56585
-3.09408
-2.36366
-0.706288
-1.63005
-0.594946
-2.8283
-0.783827
-1.53697
-0.847458
-0.752292
-1.89274
-0.950592
-1.46307
-1.24951
-2.14519
-0.795577
0.635204
0.0369368
-1.90312
-2.32224
-1.1376
-0.994342
-1.50396
-1.62344
0.28472
1.39091
-0.391159
-0.600333
0.209516
-1.81421
-3.16262
-0.582272
0.543368
-1.57655
0.898185
-1.3003
-1.65843
1.87893
-3.34033
-2.24341
-3.47487
0.694214
-1.62092
-1.31833
0.844281
0.742282
-0.77674
-1.9732
-2.35954
0.430415
0.905547
-0.598905
1.15579
-1.39456
0.253191
-0.260059
0.817317
2.03339
0.56625
-1.1858
0.119201
-4.30704
-4.29188
-0.076093
0.416424
-1.86408
0.0850552
-0.617443
0.341623
-0.847485
-0.128423
-3.05383
-1.23409
-1.59963
-2.50238
-1.77145
1.05471
-2.3424
-2.52964
-2.90613
-4.72265
-3.93612
-0.216088
-1.01919
-0.071735
-3.00301
-0.313978
-0.390131
0.209021
-1.2864
0.165431
0.121646
-2.35455
0.0792822
-2.42436
0.0270607
-1.94077
-0.399519
-2.83591
0.138113
-3.79004
-3.49314
-5.02205
-1.48178
-2.35711
-1.10853
0.442458
-1.81483
-2.46759
-1.27812
-1.39712
-0.181908
-1.57224
-0.172267
-1.49421
0.152877
-2.03511
-0.535901
-3.26645
-3.97421
-3.84533
-3.44146
-3.64178
-3.64765
-1.34798
-3.22545
0.206035
1.5153
-1.12403
-1.28485
-1.96312
-0.862994
-2.13718
-1.98281
0.02169
-1.72566
-0.625895
0.16757
1.18831
-1.62636
-1.56687
-3.61693
-2.85847
-2.02879
-1.87449
-1.4822
-2.1136
0.0136819
-1.94827
-0.084127
-1.05777
-0.538648
-2.13833
-0.549342
-1.2472
-0.636583
-1.59647
0.182203
-1.36466
-1.6041
-1.69537
-1.03995
-0.675561
-1.02584
1.25108
0.126352
-0.881047
-0.425814
-2.60816
1.25197
0.0336228
-0.140496
-1.11683
-1.76643
0.339166
-2.56121
-1.19827
0.152566
-1.15559
-0.317649
-0.965765
-2.23205
-1.17547
-1.24048
-1.12805
-1.33923
0.243573
-0.564103
-0.613004
0.80418
-1.63152
0.598929
0.948801
-1.23559
1.47693
-1.8312
-1.83203
1.38014
-0.811199
0.160783
-4.16642
0.584528
-0.609521
1.20462
-0.538373
-1.49274
-0.222993
0.682339
-0.292506
-0.66714
0.875188
-0.0761533
0.641713
-0.624197
1.01632
0.0808735
-0.879825
-0.044324
0.552556
-0.858535
-0.44867
-5.62962
-3.72859
-1.61366
-3.61916
-1.93593
0.986333
0.807324
-1.803
-2.40252
-2.87171
-1.76731
-1.45785
0.890747
-4.02056
-1.45658
-0.735212
-1.12313
0.938548
-3.00513
-4.80662
-6.20283
-2.30476
-2.62097
-2.3683
-0.757574
-0.00447819
-1.53037
0.0545395
1.21557
-4.4075
-2.55402
-2.04774
-0.513951
0.497905
-0.608064
0.332655
-0.858163
-3.64894
-2.79211
-2.22782
-3.94854
-5.15817
-2.32217
-1.50118
-2.43775
-1.4978
-1.93359
-1.63587
-1.99599
-1.76321
-1.7434
-1.32798
-0.865449
-0.268196
-2.15914
-1.19339
-1.78963
-2.46584
-2.62491
-2.23556
-1.54843
-2.84391
-1.28672
-1.92167
1.07234
0.281553
-1.19934
-0.00698832
-0.481834
-3.49058
-2.24702
-0.345569
-1.65057
-2.07058
-1.39903
-2.39669
-1.3924
-0.216875
-1.44657
-2.53334
-1.32287
-2.63361
-0.663696
-0.839393
-1.21657
-0.496538
-0.26369
-1.09137
0.434088
-0.781449
1.4536
-1.88075
0.42237
-0.481208
-0.061128
-2.68251
0.410785
-0.624455
-2.06191
-3.39827
-1.58034
-0.623068
-0.652217
-0.504936
0.409037
-0.275212
-1.06897
0.830133
-1.23465
-2.25142
-0.699888
-0.74906
-1.37752
0.55887
-1.06773
-0.656201
-0.372863
-0.358192
-1.69942
-1.99176
-1.4734
-0.025703
-1.20631
-1.09753
-0.408606
-2.09341
-0.15809
0.218066
0.206497
-1.44033
0.294967
-0.960974
-0.213009
-0.424537
0.0201175
0.820244
-1.10884
-2.84291
-0.409558
0.620055
-0.260574
0.868427
-0.134336
0.85374
-0.512779
1.79465
-0.956131
-2.51975
-0.47569
0.414176
1.54095
0.782914
0.51443
0.437412
-0.0790947
1.58186
1.10777
-1.3533
0.443015
0.433411
-1.81995
-2.30571
-1.95389
-2.37771
1.04741
0.431369
0.556659
-2.21944
-1.91196
-0.683989
0.365005
-0.28357
-2.30594
-2.36534
-0.765439
-0.768094
-1.73479
1.03153
-2.31394
-4.28771
-3.49159
-0.222689
-3.38655
-0.385976
-1.08145
0.213236
1.7934
0.555107
0.516656
0.220429
0.30724
-0.688578
-0.27723
-0.284027
-0.550537
-0.385945
0.0638574
-0.683774
0.354466
-2.56969
-2.77453
-1.97544
-1.59167
-0.332898
-0.545203
-0.995664
0.705863
-0.453611
-1.25124
-0.545771
-0.902648
-0.690903
0.165282
-1.63916
-1.28735
-0.226875
0.687166
-0.920762
-1.37719
-1.10973
-0.871142
0.480505
0.661566
0.0257201
-0.320379
-0.0580442
-0.991965
0.185843
0.198288
-0.142798
1.0647
1.30677
-2.17441
-1.22464
0.34667
-0.486985
-0.517167
-0.573449
-1.5596
-2.16941
-3.75611
-0.678502
1.8962
0.605165
-0.225364
-0.871207
-1.16682
-2.21884
0.736714
0.160308
0.0793053
0.01936
-0.414766
-1.26493
-0.274529
0.939668
-1.24125
-3.46724
-2.46323
-1.99986
-2.75668
-1.3319
-0.416378
0.144819
0.498716
-2.47808
-0.654282
-1.08423
0.706464
-0.401674
-0.686513
-3.79985
-0.63448
0.506752
-0.290005
-0.349937
-2.41801
-0.596805
-0.636133
0.258894
1.33759
-0.310789
0.822719
-1.15359
-0.279839
-0.00876477
0.458355
-0.190654
-0.0457471
1.12832
-0.534726
0.336057
0.197994
0.6452
0.250155
-0.0770451
1.67811
-0.969843
-1.75196
-1.34106
-0.655889
0.875535
-2.09142
0.89019
-0.224401
1.05169
0.418316
-1.26614
-0.608118
2.00854
0.593169
-0.534775
-0.776781
0.826644
-1.03159
-0.0923701
-0.674732
0.516336
-0.721182
-1.10543
-4.15725
-2.07775
-1.5126
-0.536073
-1.65778
1.14868
1.34689
1.36283
0.780004
-0.737211
1.07283
-0.401881
0.825752
0.767633
-1.36381
0.200532
1.02494
-1.01874
-1.9321
-1.90838
-2.33213
-3.59603
-0.213971
-1.28551
0.123412
-1.04205
1.57741
1.30565
-0.285389
-0.0559353
1.26343
-0.431388
1.13672
-0.254507
0.00902042
-0.156215
-2.37505
-1.35031
-2.02393
-2.62892
-1.72589
-3.98872
-1.19025
0.0382436
-0.958487
1.28902
0.706163
-0.903682
1.80204
2.2862
-0.0500294
0.306094
-1.47551
1.50899
-1.37626
0.110186
0.680135
-0.064327
-1.47963
-2.10249
-2.43163
-1.02983
-1.71484
-0.345617
-0.500259
-0.0856341
-0.952003
0.850558
-0.809022
-0.23156
1.59469
0.24393
-0.787152
-1.84379
1.78358
1.04661
1.11269
0.250592
-1.18131
1.32957
-1.06202
-2.73683
0.30132
-0.432983
-0.678346
-1.59829
1.01616
0.383873
0.0193393
-0.256822
0.223475
-0.407861
0.909393
-1.37702
0.956468
-0.627654
-0.683432
-2.90702
-1.90817
-1.68191
0.117167
-0.603794
0.350668
0.653666
0.0478712
0.0407496
0.360092
-0.250402
-0.196238
-2.34652
-0.992648
-0.763614
-0.212104
-0.981313
0.929661
0.023867
-2.62705
-2.20692
-1.39625
-2.2453
0.434843
2.37019
1.05318
-0.0671752
-0.537766
0.145935
2.74787
-0.935759
-0.707429
-0.449168
-0.0272083
0.856172
1.14114
-0.500353
0.491452
-2.02831
0.338318
0.174114
-1.05788
-0.598721
0.565825
-1.57237
0.434384
0.778233
-1.75695
1.62201
0.0699971
-0.188118
-1.23533
-0.818659
-2.438
-0.333888
-0.00160204
-1.25321
-0.00731935
0.0861483
2.61543
-0.0398602
-1.59505
-1.24843
-2.57679
-1.15292
0.117107
1.72236
1.72339
0.554245
1.61244
0.923642
1.52399
0.826295
0.340288
1.61168
1.93151
0.842694
2.72272
2.77194
1.58816
-0.066102
-1.59361
-1.84535
-0.942298
0.340059
-0.878102
-0.669521
0.694209
0.135055
1.03444
-0.0384326
1.09836
0.542713
0.0955877
0.38695
0.320082
0.965729
-0.0565051
-0.581594
-0.0632801
-0.837417
-0.101069
-3.12198
-3.06449
-2.13726
-1.93818
0.335777
1.03796
2.36408
0.0956699
0.277524
0.88249
1.44613
0.160305
0.850355
0.619144
-0.731114
3.78023
0.860549
-1.32205
-0.451561
-0.183789
-2.60064
-1.93896
-1.73545
-2.82518
0.34968
-0.885961
0.212986
1.22634
2.52005
-0.393208
1.0072
0.82967
-0.498589
-0.427319
-1.21788
2.65323
-1.20676
-1.00839
0.0473339
0.131301
-1.66912
-2.25852
-1.16499
0.200757
-1.1179
0.358161
0.821154
0.91002
1.45978
1.16222
0.644982
-0.201018
-0.282566
0.66166
1.50108
-1.94007
1.48248
0.854126
0.146482
-2.74014
-0.90423
-0.0071155
-1.29417
-0.876403
-1.02292
1.28769
1.67182
1.92875
0.181332
1.63806
0.969755
1.22856
-1.19966
1.42076
-0.212521
-0.286012
0.977871
0.997553
0.27064
-1.36682
1.29871
-1.14464
1.05214
2.03515
-2.61507
0.0349042
-0.158426
1.82333
-0.0834189
0.643377
-1.51034
-1.10652
0.284703
0.703421
-0.634649
1.76361
2.53466
-1.01757
1.25784
-0.366341
-0.917672
0.635828
-1.56684
1.34533
-0.768657
2.23824
0.652089
-0.929386
0.0830151
1.66683
-0.115157
0.621023
-0.570046
0.10725
1.00737
-1.0362
1.93722
0.238621
2.01141
0.217045
0.165504
-0.943189
-1.95095
0.899521
0.298603
2.32014
0.945457
2.21217
3.529
0.819202
3.19073
2.38942
1.60743
2.89842
2.84932
1.10642
-0.923019
1.55127
1.38761
1.02556
-3.01734
-1.66811
-0.359889
-1.03308
1.94994
0.760749
2.52554
0.89337
2.08337
1.58644
2.54161
3.86402
1.48436
3.06386
0.682635
1.30651
2.43408
1.20233
2.28073
-1.15126
-1.93479
-1.39723
-2.97411
0.542707
0.450307
1.82387
4.08552
0.639327
0.978516
0.69924
0.671333
1.75411
1.19289
-0.0751508
1.3179
1.98211
1.53891
1.50422
1.16453
-0.524998
0.106102
-2.0347
1.11209
0.892934
0.40343
0.185992
0.976232
1.31226
0.938261
1.26113
4.29609
0.256245
0.316529
0.374127
-0.0494394
0.684326
2.17568
0.648106
1.31787
-0.226347
-1.17092
-0.724481
-0.0462773
0.132006
1.07724
1.57645
-0.483987
1.8486
1.0774
0.581999
1.38558
2.13815
1.67253
2.01399
0.373908
0.0194268
0.930542
-0.443092
0.288327
-1.8277
-1.07405
-2.16636
-1.67593
-0.0709731
2.44883
0.893872
-1.06244
0.71714
1.97141
-0.265912
0.394064
-0.546648
-0.237659
-0.317474
0.213502
-1.54679
1.82362
0.999382
0.533969
1.23129
0.478917
1.41077
-1.49382
0.61337
-1.19339
0.5019
0.757339
-0.548683
0.349302
1.42919
1.01923
1.00078
-1.32578
1.05686
1.18916
0.429654
0.0131297
-0.204875
1.76266
-0.834419
0.154866
1.13163
-1.08611
-0.674029
-0.635596
-0.733162
-0.157826
1.05366
0.511877
-1.16859
-1.85249
-0.462722
-1.91195
0.261573
1.96542
0.275814
0.28883
0.378306
2.68072
2.02676
1.86966
-1.06985
-0.574596
0.531079
2.53603
2.83769
4.06669
3.36828
1.95898
2.08943
3.10838
4.08692
4.39855
3.73137
3.90491
3.71188
4.31841
3.6297
2.4546
-0.0866613
0.541365
0.359234
-0.178844
2.51993
0.488745
2.22279
0.132759
-0.19434
-0.484418
3.0954
-0.507644
0.398915
1.90968
0.00930817
2.38584
0.0182065
4.5142
0.354613
1.59291
-0.0633408
-0.258381
-1.93363
-1.98396
0.897599
1.82356
4.29601
2.44017
3.43835
1.13737
1.57622
2.75678
4.04189
2.82473
2.94822
1.26953
1.81552
1.01638
3.33885
0.144964
2.683
-1.64498
-0.430825
-0.201832
-0.125396
2.0266
2.21035
2.63385
3.60919
1.01343
0.21873
2.81973
1.32615
1.95386
0.739427
1.99659
1.9399
3.02012
0.480617
-0.453208
2.21862
-0.321992
0.0864308
-0.765244
0.146776
1.072
-0.0509736
3.50867
1.76989
1.68625
2.87097
3.2361
0.765737
2.51156
1.32928
0.912453
-0.437267
0.579643
0.228465
0.958459
0.75639
1.05133
-0.597041
1.08223
0.433893
0.570526
0.805508
2.03811
1.3637
1.20117
1.1184
1.74705
0.752846
3.14709
2.32905
-1.36118
0.389055
0.0615722
-0.721933
-1.37836
-0.843636
0.78302
-0.443233
-0.877064
-0.213414
0.101998
2.4303
-0.306657
-0.196428
0.198864
1.23644
-0.0710036
0.237204
-0.801699
-1.47777
-0.976431
0.393513
2.53728
2.40156
2.38999
-0.353808
1.9062
2.86974
-0.744817
-1.14257
0.820433
1.49943
1.14911
-0.769823
-0.197042
0.298576
2.57601
-0.124037
0.956335
0.960757
-0.530253
0.0609126
-0.576937
1.0357
0.117799
2.00975
-2.26491
1.24537
1.02948
3.61191
1.73627
3.22989
6.03934
4.50527
5.39808
1.55698
5.87486
5.2557
4.21627
3.29578
4.05723
4.00026
5.16931
1.26119
4.66463
1.54001
1.20102
-0.052481
0.715896
2.39285
2.13077
4.45683
3.723
5.36229
4.80264
6.09833
3.29717
2.30669
4.56116
6.14826
4.32689
3.62869
2.81947
1.20764
0.914772
0.78739
-1.72453
-1.84396
1.08863
3.306
2.80309
3.57764
1.54039
5.0728
2.85679
2.10951
4.03721
3.50265
5.48762
3.34794
4.08039
2.97626
0.589076
1.6714
2.36835
2.09023
-0.364696
0.791217
0.76007
0.401987
1.78082
2.60639
1.77518
2.89991
0.294902
4.38675
0.873004
3.75136
1.40321
1.84587
2.51792
0.448315
2.90659
3.00638
1.5085
1.12249
-1.44159
1.22588
0.384933
-0.891776
-0.536749
2.15279
1.97063
2.43966
1.81403
0.23053
0.541
0.958928
1.01323
0.215
1.50477
1.07321
-0.0554609
0.723676
1.73538
0.547173
0.424839
0.729809
1.83975
1.46758
1.34911
2.03648
0.765766
3.35952
0.327008
0.259966
-1.1788
0.76742
2.43116
-0.678571
2.53966
2.55281
0.204759
0.318959
0.574164
0.57814
0.884827
0.6445
-1.97835
0.400632
0.317986
-0.131546
2.25003
0.907012
2.16975
0.0534634
2.01189
1.55148
1.60492
1.05766
0.110929
1.40114
-1.04324
1.43582
-1.01224
0.667813
-0.54854
0.601761
1.35997
1.80995
-0.172307
0.102986
0.101186
0.162459
-0.0692704
1.3216
-1.83783
1.20613
-2.09623
-0.460229
-0.707096
-0.192147
0.907841
-2.16328
-0.534222
-1.80602
0.438332
)
;

boundaryField
{
    hotSide
    {
        type            calculated;
        value           nonuniform List<scalar> 
400
(
-0.10667
-1.10104
-0.862824
-2.20362
-1.65895
-0.953049
-2.40829
-1.88875
-4.62278
-1.3043
-2.8776
-4.41677
-3.37002
-4.6535
-0.80159
-3.09352
-1.46453
0.220749
0.148934
2.52217
3.22712
1.49506
2.07905
1.02372
0.81048
1.40015
-0.268766
0.636986