/*--------------------------------*- C++ -*----------------------------------*\
| =========                 |                                                 |
| \\      /  F ield         | OpenFOAM: The Open Source CFD Toolbox           |
|  \\    /   O peration     | Version:  2212                                  |
|   \\  /    A nd           | Website:  www.openfoam.com                      |
|    \\/     M anipulation  |                                                 |
\*---------------------------------------------------------------------------*/
FoamFile
{
    version     2.0;
    format      ascii;
    arch        "LSB;label=32;scalar=64";
    class       volScalarField;
    location    "0";
    object      relativeErrorField;
}
// * * * * * * * * * * * * * * * * * * * * * * * * * * * * * * * * * * * * * //

dimensions      [0 0 0 1 0 0 0];

internalField   nonuniform List<scalar> 
3200
(
0.00237526
0.00735277
0.00678669
0.00929132
0.00598013
0.00837362
0.00670479
0.00709484
0.00882746
0.00386209
0.00735115
0.0113716
0.00565746
0.0094957
0.00858124
0.00966686
0.00624232
0.00305405
0.00188099
0.00181469
0.00445494
0.00121757
0.00113349
0.011857
0.011129
0.011475
0.0105432
0.0087382
0.00963826
0.00569377
0.00722939
0.00633859
0.0054992
0.0107262
0.00913064
0.0066999
0.00201767
0.00728539
0.00662452
0.00295563
0.00337513
0.00108521
0.00487857
0.00800673
0.00689543
0.00803863
0.0101216
0.00917176
0.00124209
0.00699471
0.00891734
0.00566307
0.00252261
0.000421782
0.00460348
0.00197366
0.00485133
0.00729601
0.00332135
0.00174675
0.00369378
0.00384367
0.00487386
0.00552718
0.00625655
0.00750055
0.00601603
0.00202099
0.00204576
0.00519432
0.00132589
0.00254596
0.0061993
0.0079617
0.00927994
8.73687e-05
0.00424396
0.00225292
0.00347172
0.00382647
0.0046947
0.00134876
0.000225041
0.00732692
0.00828227
0.0101246
0.00589425
0.00129164
0.00247241
0.00735384
0.00563717
0.00752508
0.00780378
0.000567241
0.00573834
0.00915716
0.00595331
0.00406683
0.0015096
0.00553672
0.00712755
0.000814248
0.00635545
0.00120213
0.00556017
0.0028558
0.00881454
0.002802
0.00237636
0.00182439
0.00427539
0.00311848
0.00100043
0.00127074
0.00565386
0.00599455
0.0001239
0.00465409
0.00165667
0.000507406
0.00134453
0.00601132
0.00261947
0.00197818
0.0075677
0.00162467
0.00542556
0.00438376
0.00278739
0.00172559
0.00426475
0.00650046
0.00353527
0.000595879
0.00210554
0.00268394
0.00272085
0.00201556
0.00354131
0.00216125
0.00263565
0.00135381
4.80324e-06
0.000371836
9.51613e-05
0.000797375
0.00110657
0.00180917
0.00131723
0.00935876
0.00488508
0.000901386
0.00810583
0.0024762
0.00263362
0.000214992
0.0011922
0.000634795
0.00481526
0.00293151
0.0052891
0.00228133
0.00873729
0.00592093
0.0128117
0.0145281
0.00570451
0.00974452
0.0067132
0.0035597
0.00942073
0.00757156
0.00954808
0.00696975
0.00117783
0.0076417
0.0124939
0.00551117
0.00141545
0.000899924
0.00321603
7.90799e-05
0.00358325
0.00116517
0.0142237
0.000630515
0.0127556
0.000152332
0.000841955
0.000393315
0.0013431
0.00193542
0.0008947
0.00885328
5.04329e-05
0.00901139
0.000184945
0.00420982
8.71307e-05
0.00238051
0.0089651
0.00266482
0.00253488
0.00985216
0.000188788
0.00102022
0.0082188
0.00207338
0.00587908
0.0103881
0.00800459
0.00611968
0.00180789
0.00391487
0.00244663
0.00860283
0.00820984
0.000123491
0.000698401
0.00500706
0.00144357
0.00357737
0.000268263
0.00780444
0.00738637
0.00536107
0.00465793
0.00542522
0.00318709
0.00141708
0.00646433
0.00453632
0.00665431
0.00401696
0.000655928
0.00460688
0.00619828
0.00843787
0.00086857
0.00220267
0.000834899
0.00422226
0.00308745
0.00615791
0.0104836
0.000407656
0.00264555
0.00833668
0.00433122
0.00824775
0.00113197
0.00469685
0.00348184
6.78226e-05
0.0026657
0.00505143
0.00432468
0.000162538
0.00331004
0.000970089
0.00204977
0.0017147
0.00537176
0.00351639
0.0053529
0.000788519
0.00426375
0.0056584
0.00779836
0.00564417
0.00148741
0.00175031
0.00154434
0.00379013
0.00356058
0.00780744
0.00320039
0.00328379
0.00477366
0.00459806
0.0024585
0.00817331
0.000662742
0.00450129
0.00363049
0.000858811
0.00481453
0.000668148
0.00558982
0.00604848
0.0050376
0.00197102
0.00153414
0.00922991
0.00212368
0.000926765
4.83541e-06
0.00355705
0.0043135
0.000675137
0.00810106
0.00269633
0.00222685
0.00341203
0.0112245
0.00223448
0.00137023
0.00410577
0.0047763
0.00225646
0.00450722
0.00258508
0.000595237
0.00156301
0.00218873
0.000560214
0.00123686
0.0013108
0.00457651
0.00816161
0.00460518
0.00396631
0.00720786
0.00706798
0.00929286
0.0115109
0.00699026
0.0106412
0.000507555
0.00386569
0.00056257
0.000597787
0.00521651
0.00579065
0.00582423
0.0085013
0.00802781
0.00746849
0.00173165
0.00276053
0.00153879
0.00214266
0.00621683
0.00937763
0.00593328
0.00853816
0.0136236
0.0083814
0.0018343
0.00357314
0.00177464
0.00164513
0.00195076
0.00309071
0.00190128
0.00198081
0.0054581
0.00888984
0.00342234
0.0032599
0.0047001
0.00575098
0.00518935
0.00204555
0.00381486
0.0107634
0.00904918
0.00889773
0.00355125
0.00102479
0.00440082
0.00490761
0.003483
0.00303846
0.0033081
0.00377272
0.00982788
0.00498103
0.00847253
0.00664215
0.00326977
0.00350371
0.000597437
0.00672075
0.00241136
0.000643683
0.00266156
0.00349337
0.00370216
0.00540094
0.0009781
0.00214147
0.00502836
0.000247229
0.000235265
0.00280623
0.00272635
0.00268695
0.00228575
0.00306231
0.00648366
0.00897386
0.00157861
0.0011722
4.9923e-05
0.00140713
0.00287042
0.000623682
0.000301527
0.00115711
0.00717172
0.00340214
0.000465368
0.00595384
0.00199712
6.97173e-05
0.00325007
0.000734249
0.00438653
0.00312846
0.000126162
0.00240367
0.0059278
0.00480003
0.00438023
0.0050399
0.00216521
0.00299335
0.000134021
0.00449543
0.00444078
0.000492397
0.000201159
0.0072038
0.00282263
0.00120839
0.00311986
0.00122653
0.00387899
0.000151321
0.00433711
0.000897676
0.00457508
0.00529115
0.000410228
0.00068847
0.0050899
0.00502335
0.001682
0.00775846
0.00527551
0.00149608
0.00145241
0.00240859
0.00322893
0.00284151
0.00222773
1.59716e-06
0.0014803
0.00831198
0.000215233
0.000834561
0.0113711
0.000854509
0.00178157
0.00414943
9.68481e-05
0.00182044
7.46983e-05
0.000269295
0.000298341
0.00192276
0.00251819
0.00273392
0.000392265
0.00101566
0.00124913
0.00319773
0.00143056
0.00117117
0.00853282
0.000860256
0.00041491
0.0124768
0.0115662
0.00448574
0.0036272
0.0077468
0.000451488
0.00697911
0.0035382
0.00514178
0.00438466
0.0050454
0.0040158
0.00447693
0.00627737
0.00157303
0.00142099
0.00551744
0.00316513
0.000211684
0.0068455
0.00079412
0.00487001
5.3825e-05
0.00556204
0.000985178
0.000220883
0.00116588
0.000359479
0.00558506
0.00142245
0.0016628
0.00090085
0.00629252
0.000133907
0.000827914
0.000198105
0.00023965
0.00610029
0.00451778
0.00262983
0.00689224
0.00390203
0.0026763
0.00809335
0.0085916
0.00240154
4.89465e-05
0.00044056
0.00275388
0.00526053
0.00578916
0.00663566
0.00308558
0.00496477
0.00496472
0.0029173
0.0104128
0.00429156
0.00501845
0.00447609
0.0135484
0.000215155
0.00775243
0.00159207
0.00477393
0.00218511
0.000460649
0.00140881
0.0055529
0.00619441
0.000710617
0.00153946
0.00452938
0.00524183
0.00157133
0.00344819
0.00248714
0.000905814
0.000767995
0.00381567
0.00596788
0.00478849
0.00605433
0.00129503
0.00388277
0.00352958
0.00216833
0.000224736
0.00474931
0.00237976
0.00370679
0.0084545
0.00263989
0.00251742
0.00470556
0.00490376
0.00709194
0.000230612
0.000369763
0.00462708
0.00118848
0.00241841
0.00494313
0.000973237
0.00285373
0.00150851
0.000383176
0.00181361
0.0063861
0.00216702
0.0051613
0.00623141
3.4458e-06
0.006609
0.000472004
0.0012717
0.000925256
0.00137534
1.82687e-05
0.00204862
0.00338323
0.000561312
0.0032891
0.0026164
0.00569752
0.00521848
0.0028917
0.00048374
0.00119805
0.000462171
0.00384741
0.00433181
0.00535276
0.00161293
0.000500483
0.0017128
0.00212564
0.00393927
0.00855868
0.00568143
0.000157931
0.00439597
0.00394126
0.00156922
0.00687322
0.00422823
0.00454365
0.00471632
0.00227276
0.00350053
0.00631621
0.00301678
0.00176122
0.00516247
0.00374601
7.45908e-05
0.0031776
0.00696477
0.000204855
0.00738053
0.00454485
0.00203146
0.00289184
6.61238e-05
0.0022181
6.55651e-08
0.0043336
0.00203491
0.00145525
0.00186796
0.00397516
0.00522234
0.011111
0.00934664
0.00225866
0.00196769
0.00347397
0.00742434
0.00261629
0.00632396
0.00492751
0.00470495
0.0101228
0.000946543
0.000155435
0.000562026
0.00534024
0.000147494
0.00204642
0.00741414
0.00265998
0.00102122
0.00084689
0.00968792
0.00271943
0.0067566
0.00727096
0.00332906
0.00460262
0.00266691
0.00371611
0.00350023
0.000889437
0.00309261
0.00444988
0.006363
0.00427053
0.000449686
0.00219649
0.00247349
0.00459898
0.0034465
0.00287399
0.00386972
0.000948063
0.00323784
0.00357119
0.00913555
0.00304049
0.00203415
0.00217436
0.00130595
0.00480452
0.00435728
0.00180166
0.0030094
0.0054545
0.000122719
0.0064688
0.00694415
0.00577541
0.00100481
0.00112808
0.00350033
0.000822385
0.00256653
0.00435322
0.00339509
0.00372281
0.00147708
0.00448517
0.00251281
0.00560638
0.000616936
0.00332704
0.0006808
0.00031924
0.00207806
0.00522656
0.00121382
0.00859076
0.00460552
0.00298299
0.000992865
6.78642e-05
0.00261593
0.00327937
0.00103691
0.00323784
0.00248958
0.00219701
0.00776413
0.00244995
7.52199e-05
0.00223734
0.00195622
0.00787007
0.00218655
0.00446408
0.00959413
0.00248355
0.00217425
0.000451412
0.00265228
0.00513198
0.00373595
0.000916978
0.00275801
0.00263154
0.00231183
0.00425024
0.00465833
0.0012365
0.00230277
0.000228259
0.00240583
0.0048228
0.00403444
0.00691374
0.00223204
0.000137524
0.000186462
0.00260628
0.00105435
4.09547e-05
0.000150779
0.00369237
0.00669074
0.00440508
0.00102887
0.00509762
0.00380476
0.00489947
0.000283945
0.00125237
0.000318928
0.00345374
0.000383135
0.002787
0.000705836
0.00223971
0.0006198
0.000120594
0.00280083
0.00247821
0.00521558
0.0005398
0.00494103
0.00187251
0.00462881
0.00290243
0.0051603
0.00639833
0.00307876
0.0080315
0.000831965
0.00174436
0.00852989
0.00697484
0.00042095
0.000288201
0.000304977
0.00122447
0.000325311
0.00393908
0.000957729
0.00334324
0.00769666
0.000208351
0.00530294
0.00114011
0.000648214
0.000192935
0.000670408
0.000146795
0.00203596
9.83034e-05
0.0019225
0.00722221
0.000376897
0.00295567
0.00162614
0.00267335
0.000141832
0.00355839
0.00104267
0.00700432
0.00211667
0.00553336
0.00221989
0.00298837
0.00300352
0.000310438
0.00500788
0.00207435
0.00021794
0.00620997
0.00591567
0.00389554
0.00516182
0.000869722
0.00214349
0.000902579
0.00547809
0.00283951
0.00158643
0.000432542
0.00685012
0.000954698
9.42222e-05
0.000593948
0.00146465
0.000357092
0.00610953
0.0075336
0.00147283
0.0049116
0.00125746
0.00118359
0.00486181
0.00286925
0.00280871
0.00015345
0.000351601
0.000112866
0.00238322
0.00490814
0.00322311
0.00659345
0.00238391
0.00175402
0.00546828
0.00229213
0.00344463
6.55172e-05
0.000948287
0.00718927
0.00121563
8.39512e-05
0.00504556
0.00399516
0.000928066
0.0036324
0.00266111
0.000610551
0.000459559
0.00542352
0.00369234
0.000335176
0.000436782
0.0032955
0.00179771
0.00552502
0.00708478
0.0014385
0.00555849
0.00483271
0.00681302
0.00165652
0.00233227
0.0020782
0.000810801
0.00126597
0.000688989
0.00558101
0.00507747
0.00482785
0.000362895
0.00207479
0.000603404
0.00690115
0.00520536
0.00496627
0.00659188
0.0031152
0.00301873
0.00633004
0.000410724
0.000929046
0.00205311
0.00482865
0.00350724
0.000847502
0.002964
0.000623755
0.00664281
0.0076376
0.00103053
0.00310147
0.00268668
0.00272431
0.00271484
0.00139342
0.00126456
0.00529809
0.00228536
0.00202192
0.00472838
0.00257243
0.000726739
0.00129915
0.000399959
0.00298409
0.00123401
0.00250656
0.00204804
0.0010629
0.00918738
0.00300938
0.00450761
0.000263437
0.00490133
0.00247408
0.000584487
0.000583261
0.0034414
0.00691831
0.00552757
0.0100117
0.000204984
0.00108652
0.00194994
0.00548502
0.00274863
0.000251504
0.00326966
0.0011172
0.00467928
0.00459612
0.00212225
0.00407229
0.00183403
0.00127942
0.00305127
0.00293615
0.00754979
0.000630399
0.00531421
0.00253526
0.00442659
0.000181969
0.00210618
0.000606928
0.00567383
0.00441788
0.00536789
0.00850509
0.00727825
0.00621366
0.00108385
0.000422008
0.00118426
0.00644506
0.0011952
0.00140574
0.002597
0.00383249
0.00550373
0.00262116
0.00253725
0.00518066
0.00432713
0.0013215
0.00155262
0.00178422
0.00502982
0.0121306
3.39648e-05
0.00654632
0.000658732
0.00531014
0.00429862
0.00085729
0.00144365
0.00238763
0.00542279
0.00637506
0.000712564
0.000592152
0.000685734
0.00114821
0.0123415
0.00476143
0.00686604
0.00137685
0.0019126
0.00517773
0.00439801
0.000565676
0.00736506
1.18604e-05
0.0058126
0.00378391
0.000747008
0.00525425
0.00349463
0.000100174
0.00638778
0.00565389
0.00127257
0.00504657
0.00343331
0.00558034
0.00215556
0.00261819
0.00492717
0.00300905
0.00613375
4.71924e-05
0.000384877
0.000840933
0.00311932
0.00351695
0.00513748
0.00263375
0.00743756
0.00180879
0.00612765
0.00381627
0.000342626
0.0031596
0.00227147
0.00753032
0.0024132
0.00488351
0.00635257
0.00217637
0.00137907
0.00215709
0.000531652
0.00266899
0.00113205
0.00397966
0.000553691
0.000562094
0.000216437
0.000968163
0.00340804
0.00490074
0.00440361
0.0055698
0.00470783
0.000288677
0.000164216
0.000564742
0.00227827
0.00283727
0.00355444
0.00329294
0.00293488
0.00511652
0.00351162
0.00120692
0.00377534
0.00283857
0.00576262
0.00389282
0.000564473
0.00209246
0.00137978
0.00293428
0.00641544
0.00433058
0.0015102
0.00293781
0.00422777
0.000877462
0.00771641
0.000447897
0.00993875
0.001638
0.000760979
0.00394335
0.0058366
0.000534798
0.00170501
0.00331444
0.00964605
0.00499095
0.00234691
0.00194926
0.00296357
0.00249202
0.00359685
0.00293804
0.000383157
0.0134804
0.0120228
0.00145473
0.000955646
0.000665598
0.00429785
0.00101077
0.000323241
0.00021256
0.00872284
0.000491647
9.45418e-05
0.00498536
0.00263278
0.00827523
0.000817255
5.28671e-05
0.000288308
0.00216752
0.00107169
0.0113532
0.0165231
0.00403832
0.00263671
0.00123629
0.00367604
0.00129343
0.00195347
0.000127803
0.00269723
0.00155434
0.00323981
0.00031035
0.00760083
0.00608288
0.00128563
0.000155064
0.00572281
0.000713954
0.00790711
0.00505901
0.00417718
0.00758427
0.00817374
0.00111923
0.000341329
0.0020375
0.00190028
0.00672149
0.0052598
0.00411964
0.00103491
0.0025643
0.00635774
0.00337873
0.00409639
0.00325068
0.00170941
0.00598345
0.00800133
0.00873357
0.00573062
0.0051641
0.00844396
0.00325442
0.00944438
0.00324246
0.00225377
0.00455873
0.000591014
0.00599789
0.000678597
0.00162781
0.00329216
0.00312739
0.00315246
0.000971166
0.00236546
0.000604034
0.00471617
0.0097096
0.00447296
0.00133945
0.00273331
0.00537656
0.00314908
0.000926588
0.00158156
0.000645513
0.0013065
0.00269065
0.0022568
0.00690456
0.00689628
0.000583998
0.0043768
0.00115194
0.00353287
0.00133843
0.00651729
0.000270398
0.00117315
0.00099898
0.00362731
0.00482407
0.00177617
0.00356392
0.00352015
0.00470988
0.00215235
0.00454165
0.00319701
0.00417847
0.00778148
0.00890468
0.00235019
0.00225765
0.0026123
0.00195097
0.000524481
0.000461664
0.000192478
0.00273692
0.00365176
0.000366023
0.00191693
0.00147497
0.00649116
0.00404052
0.000628369
0.00465357
0.00572793
0.00225938
0.00619704
0.00129554
0.000403639
0.000859107
0.00167037
0.00543929
0.000621782
0.00382563
0.0156028
0.00476809
0.00735689
0.00134964
0.00169686
0.00229615
0.00354494
0.00197622
0.00733337
0.00481753
0.00255653
0.00110581
0.0092055
0.00390859
0.00566258
0.00236349
0.00747181
0.00758828
0.00801701
0.0103357
0.0087124
0.0114598
0.00720286
8.78425e-05
0.000907263
0.00629859
0.000398952
0.00922676
0.00511783
0.00662402
0.00826862
0.00727474
0.00452488
0.00684941
0.000367108
0.00233111
0.00277716
0.0100257
0.0120306
0.00869075
0.00495053
0.0115749
0.0022591
0.00484772
0.00040729
0.00216858
0.00261357
0.00311665
0.0086879
0.00417377
0.00401724
0.00485674
0.00632976
0.00726289
0.00171698
0.00693393
0.0070197
0.000885913
0.00555305
0.0134004
0.00851035
0.00648397
0.00265444
0.00496768
0.00907563
0.000463161
0.00677391
0.00399201
0.00537757
0.00712689
0.00632177
0.00940121
0.00152701
0.00439235
0.00490531
0.00504109
0.00274941
0.0111788
0.00544978
0.0130729
0.00816149
0.0044717
0.00230369
0.00126635
0.000581666
0.00678184
0.00134916
0.00184498
0.00252377
0.00298492
0.00643675
0.0024292
0.00481839
0.00378175
0.00709537
0.000188438
0.00126864
0.00206182
0.0109338
0.000924364
0.0024307
0.00615751
0.00182835
0.00422043
0.00156092
0.00709548
0.00070392
0.00208485
0.000186615
0.000802878
0.00750053
0.00326698
0.00616217
0.00200792
0.00566024
0.0026696
0.00301713
0.00554341
0.000505996
0.00292727
0.00239699
0.0020221
0.00448931
0.00214218
0.00268416
0.00497434
0.000957994
0.00418411
0.00360844
0.00353525
0.00221872
0.00109383
0.00623705
0.000636754
0.00508341
0.00161382
0.0025665
0.00435324
0.0018796
0.000563441
0.00100635
0.00296253
0.000610202
0.000783436
0.00435391
0.0028753
0.00179571
0.00327802
0.00491208
0.00399972
0.000425975
0.00307526
0.00111186
0.000436801
0.000100855
0.00390576
0.00359828
0.00583337
0.00137872
0.000645757
0.00612361
0.00783899
0.00298521
0.00649366
0.00542305
0.00371872
0.000295743
0.0102567
0.00628402
0.00641727
0.00964282
0.00711364
0.00147718
0.00576101
0.00411474
0.00275293
0.00456455
0.00320303
0.00758861
0.0108375
0.0127155
0.000147922
0.00249571
0.00100564
0.00404319
0.00124466
0.00138711
0.000630647
0.00803977
4.54135e-05
0.00203447
0.00749815
0.000597939
0.00176479
0.000908529
0.00276716
0.000391708
0.00864046
0.00148241
0.0102219
0.00499382
0.00735009
0.00109876
0.000478523
0.00378026
0.00271478
0.00477183
0.00229266
0.00504
0.00416823
0.00658637
0.00739848
0.00121483
0.00644923
0.00675365
0.00135827
0.00376716
0.000292834
0.00929376
0.0127884
0.00783878
0.00455647
0.00313831
0.00387736
0.00127655
0.000203603
0.00352241
0.000821382
0.00267569
0.00553317
0.00455244
0.00376163
0.00315726
0.00208536
0.00517762
0.00680808
0.00270961
0.00189771
0.00263383
0.0038178
0.00842413
0.00200691
0.00214246
0.00525759
0.000728652
0.000952902
0.00088138
0.00129741
0.00324346
0.0002637
0.00209909
0.00558579
0.00448472
0.00490327
0.00562096
0.000332008
0.00588539
0.000888526
0.00804921
0.0045944
0.000769276
0.00745746
0.00601731
0.00511444
0.004262
0.00312237
0.0002597
0.000163058
0.00284435
0.00160922
0.00312923
0.0104336
0.00164668
0.00396564
0.00999503
0.00386701
0.000960707
0.00334169
0.00330824
0.00799343
0.00106934
0.000212267
0.000105089
0.00578463
0.00418784
0.000632136
0.00388054
0.00757586
0.00372694
0.000285944
0.00644601
0.000828516
0.00151349
0.000866257
0.00793176
0.00506307
0.0099709
0.00725374
0.00215265
0.00494486
0.00205143
0.00425699
0.00440509
0.00158983
0.000826333
0.00618946
0.00107154
0.00168989
0.00322986
0.00154936
0.00109546
0.00751928
0.000164063
0.0034787
0.00644309
0.00417297
0.00737087
0.00145561
0.00383299
0.00118748
0.010651
0.00908395
0.00596961
0.00475104
0.00744419
0.00130886
0.00534393
0.00115981
0.00698044
0.00290474
0.00764172
0.00897565
0.00916277
0.00298828
0.00225256
0.00654873
0.00537881
0.00650005
0.00958266
0.00955973
0.00375967
0.00135064
0.00289792
0.000682852
0.00303577
0.000805906
0.000224922
6.42422e-05
0.00647212
0.000648911
0.00049018
0.00452039
0.000312521
0.00519335
0.00177037
0.0127003
0.00140637
0.000846673
0.00232697
0.0118153
0.00505148
0.00289609
0.00368258
0.00306882
0.0109985
0.00432086
0.000725686
0.000559833
0.00449536
0.0068553
0.00886075
0.00727887
0.00861697
0.00386108
0.00376026
0.00531846
0.00648041
0.00569635
0.006195
0.00949153
0.0124128
0.00782791
0.00177324
0.00446002
0.00767039
0.0051844
0.00142437
0.00134317
0.00968792
0.00194897
0.00692753
0.00758384
0.00253187
0.00678772
0.00252076
0.00110284
0.0102769
0.002771
0.00562724
0.0065093
0.00153732
0.0114498
0.000313594
0.000116545
0.0125798
0.00232384
0.00380326
0.00249766
0.00331885
0.000519936
0.0103811
0.00462666
0.00102492
0.00394647
0.000443392
8.45636e-05
0.00333944
0.006333
0.00544947
0.00294842
0.00212551
0.00620032
0.00211735
0.00364618
0.00408381
0.00358882
0.00093524
0.000688515
0.00116123
0.00111908
0.00306497
0.000200269
0.000775341
0.000790922
0.00050302
5.50869e-05
0.00373305
0.00599097
0.0016179
0.00478953
0.00312447
0.00305575
0.000350933
0.00463919
4.69147e-05
0.00317651
0.00452308
0.00222594
0.00606626
0.0033281
0.00130832
0.00799172
0.00778524
0.0117987
0.00167908
0.00645
0.00397301
0.00363421
0.00407685
0.00427704
0.00623494
0.00177123
0.00283679
0.000529155
0.00430594
0.00320298
0.000861532
0.000611488
0.00614034
0.00392935
0.000920101
0.00523012
0.00367761
0.00143582
0.00334879
0.000745541
0.00195907
0.000910255
0.00886179
0.00249999
0.0150371
0.0129861
0.00711879
0.00723373
0.00831263
0.00243555
0.00705989
0.00366988
0.00260443
0.00277791
0.00940591
0.00506779
0.00195535
0.00779633
0.00647224
0.0045299
0.00754825
0.0151524
0.00914265
0.0154916
0.0200408
0.00533994
0.00407505
0.004846
0.00205097
0.00380246
0.00133594
0.0101292
0.00286392
0.00482483
0.00455896
0.00425199
0.00509576
0.0131181
0.00919386
0.00130776
0.008737
0.00831958
0.00862539
0.0152842
0.0166273
0.00948013
0.0133098
0.00719691
0.00448605
0.00148163
0.000791049
0.00341138
0.00623509
0.00638057
0.0046561
0.00137617
0.00430618
0.00257723
0.00578465
0.00394441
0.00816166
0.00987207
0.0141962
0.0100093
0.00813554
0.0139662
0.00719389
0.00950788
0.0041098
0.00159756
0.00498183
0.00688313
0.00535066
0.003333
0.000987521
0.00285106
0.00565022
0.00187813
0.00159178
0.00553672
0.000284538
0.000637047
0.00832815
0.00963094
0.00592949
0.00913928
0.00237413
0.00101575
0.00286551
0.00313419
0.00429202
0.00190313
0.0024543
0.000826565
0.00890273
0.00152971
0.00899441
0.00749737
0.00508421
0.00269601
0.00334458
0.00670242
0.00788695
0.00951252
0.00743115
0.00222019
0.00512301
0.00186946
0.00888541
0.00246201
0.00482685
0.00266108
0.00236202
0.00594245
0.00298449
0.00459371
0.00392355
0.00673697
0.00249892
0.00199556
0.000116064
0.00598126
0.00729985
0.00357653
0.00319863
0.00483755
0.00522126
0.000915596
0.00447232
0.00125758
0.00192988
0.000673472
0.00583127
0.010165
0.00187149
0.00174651
0.0050677
0.00288738
0.00418049
0.00533247
0.00604223
0.0107431
0.00721604
0.0111781
0.00228628
0.00533806
0.00434141
0.00278019
0.00244421
0.00255757
0.00649691
0.00776874
0.00141711
0.00298141
0.00197183
0.00380533
0.00459155
0.000833651
0.000856295
0.00269129
0.00669588
0.00186472
0.0039051
0.000392567
0.0121054
0.0120581
0.000213683
0.00116881
0.00522951
0.000238506
0.0017307
0.000957258
0.00237418
0.000359727
0.0085541
0.00345724
0.00448231
0.00701419
0.00496737
0.00295892
0.00657464
0.00710367
0.00816483
0.0132735
0.0112947
0.000619857
0.00292237
0.000205599
0.0086032
0.000899139
0.00111682
0.000598187
0.00368072
0.00047329
0.000348022
0.00673698
0.000226893
0.00694016
7.74935e-05
0.00556002
0.00114505
0.00813152
0.000396182
0.0108755
0.0102399
0.0147176
0.00434093
0.00690263
0.00324503
0.00129477
0.00530913
0.00721691
0.00373743
0.00408502
0.000531879
0.00459748
0.000503825
0.00437117
0.000447367
0.00595746
0.00156935
0.00956918
0.0116468
0.0112723
0.0103124
0.0109101
0.0109244
0.00403578
0.00965383
0.000616488
0.00453283
0.0033617
0.00384208
0.00586987
0.00258041
0.0063908
0.00593007
6.48827e-05
0.00516343
0.00187331
0.000501697
0.00355886
0.00487225
0.00469513
0.0110855
0.0087593
0.0062154
0.00574125
0.00453862
0.00647051
4.18768e-05
0.00596213
0.000257416
0.00323641
0.00164808
0.00654297
0.00168111
0.00381736
0.00194881
0.00488852
0.000558056
0.00418077
0.0049155
0.00519615
0.00326211
0.00211881
0.00321685
0.00392242
0.000396073
0.00276132
0.00133436
0.0081721
0.00392242
0.000105336
0.000440156
0.00349905
0.00553472
0.00106283
0.00802717
0.00375618
0.000478331
0.00362371
0.000996264
0.00302939
0.00717008
0.00377571
0.00398407
0.00362258
0.00430026
0.000782033
0.00181098
0.00196782
0.00258139
0.00523698
0.00192248
0.00304562
0.00396639
0.0047415
0.0058794
0.00588265
0.00443215
0.00260535
0.000516447
0.0133839
0.00192412
0.00200633
0.00396504
0.00177201
0.00491304
0.000733907
0.00224562
0.000962631
0.00219551
0.00288015
0.000250612
0.00211183
0.00205422
0.00334476
0.000266169
0.00289576
0.000145889
0.00181876
0.002826
0.00147691
0.0157195
0.0104076
0.00450226
0.0100932
0.00539659
0.00274837
0.00224876
0.00502068
0.00668874
0.00799416
0.00491976
0.00405874
0.0024804
0.0111991
0.00405871
0.00204948
0.0031322
0.00261863
0.00838821
0.0134215
0.0176962
0.00657328
0.00747223
0.00674921
0.0021581
1.27524e-05
0.00435659
0.00015522
0.00345889
0.0125403
0.00726676
0.00582682
0.00146271
0.00141741
0.00173156
0.000947633
0.0024456
0.0104029
0.00796321
0.0063558
0.0115168
0.0150411
0.00676916
0.00437445
0.00710121
0.00436176
0.00562925
0.00476145
0.00580869
0.00513086
0.0050732
0.00386467
0.00251902
0.000780798
0.00628766
0.00347638
0.00521499
0.00718796
0.00765419
0.00652055
0.00462039
0.00848416
0.00383758
0.00572964
0.00319638
0.000839015
0.00357316
2.08162e-05
0.00143505
0.0103954
0.00669187
0.00102921
0.00491656
0.0061688
0.00416905
0.00714392
0.00415158
0.00064682
0.00431553
0.00755929
0.0040409
0.00804336
0.00202656
0.00256245
0.00371305
0.00151515
0.000804479
0.00332911
0.001324
0.00238335
0.00443335
0.00573642
0.0012884
0.00146809
0.000186527
0.0081872
0.00125402
0.00190674
0.00629732
0.0103805
0.00494501
0.0019494
0.00204027
0.00157928
0.00127912
0.000860499
0.00334188
0.00259492
0.00385912
0.00703692
0.00218753
0.00234132
0.004306
0.00174717
0.00333845
0.00205204
0.00116619
0.0011205
0.00531698
0.00623238
0.0047259
8.24359e-05
0.00386854
0.00351932
0.0013101
0.00671139
0.000506789
0.000699006
0.000661889
0.00461663
0.000945444
0.00308023
0.000682797
0.00136093
6.44958e-05
0.00262992
0.00355558
0.00911702
0.00131355
0.00198882
0.000857302
0.00285709
0.000441947
0.00280858
0.00168685
0.00590352
0.00314512
0.00828831
0.00156468
0.00136233
0.00506859
0.00257523
0.00169213
0.00143883
0.000260183
0.00520373
0.00364427
0.00445217
0.0014575
0.00142594
0.00504644
0.00639131
0.00541393
0.00658557
0.00289988
0.00119385
0.00154011
0.00613892
0.00528748
0.00189137
0.00100932
0.000784205
0.00637819
0.00654419
0.00211842
0.00212655
0.00480487
0.00285821
0.00641412
0.0118892
0.00989966
0.00063121
0.00959576
0.00109326
0.00306208
0.000603575
0.00507485
0.00157044
0.00146142
0.000623458
0.000868991
0.00194773
0.000784306
0.000803722
0.00155832
0.00109279
0.000180874
0.00193747
0.00100473
0.00728581
0.00804922
0.00572958
0.00461511
0.000964946
0.00157986
0.00288436
0.00204432
0.00131349
0.00362261
0.00158001
0.00261317
0.00200031
0.000478595
0.00474734
0.00372936
0.000657427
0.00199184
0.00266978
0.00399442
0.00321944
0.00258773
0.00142706
0.0019643
7.63474e-05
0.000950768
0.000172213
0.00294247
0.000551174
0.000588015
0.000423438
0.00315715
0.00387518
0.00644889
0.00363266
0.00102854
0.00144519
0.00153515
0.00170266
0.00463189
0.00644426
0.0114324
0.00206482
0.00576936
0.00184089
0.000685408
0.00264913
0.00354744
0.00674496
0.00223929
0.000487244
0.000241042
5.88461e-05
0.00126083
0.0038457
0.000834777
0.00285785
0.00377584
0.0105494
0.00749612
0.00608691
0.0086032
0.00415619
0.00129912
0.000451772
0.00155555
0.0077283
0.00204024
0.0033806
0.00220259
0.00125228
0.00214032
0.011847
0.0019783
0.0015802
0.000904429
0.00109149
0.00754317
0.00186206
0.00198505
0.00080797
0.00428332
0.000995164
0.00263416
0.00369319
0.000895812
2.80552e-05
0.00146704
0.00061018
0.000146406
0.00361091
0.00171126
0.00107549
0.000633672
0.00206506
0.00080072
0.000246634
0.00537241
0.00310522
0.00560988
0.00429446
0.0021567
0.00287888
0.00687663
0.00292687
0.000737791
0.00345767
0.00137527
0.00416252
0.0019992
0.00660306
0.00195004
0.00175808
0.00255372
0.0027177
0.00339157
0.000303696
0.00221846
0.00169772
0.00237134
0.00363487
0.0114425
0.00571713
0.00416056
0.00147398
0.00455658
0.00315621
0.00369977
0.00374268
0.00214175
0.00202408
0.00294555
0.00110349
0.00226773
0.00210861
0.00374732
0.000551182
0.00281816
0.00280215
0.00531637
0.00525266
0.00656898
0.0101264
0.000602352
0.00361765
0.000347193
0.00293074
0.00443527
0.00367041
0.000802163
0.00015721
0.00355095
0.00121253
0.00319552
0.000715609
2.53696e-05
0.000439477
0.00668381
0.00380127
0.0056994
0.00740496
0.00497858
0.0115035
0.00343174
0.000110233
0.00276198
0.0037135
0.00203392
0.00260235
0.00518872
0.00658237
0.000144043
0.000881356
0.00424905
0.00434626
0.00396483
0.000317513
0.00196042
0.000185469
0.00426726
0.00606495
0.00718878
0.003044
0.00506761
0.0010211
0.00147764
0.000252888
0.00281086
0.00251096
0.0023881
0.000683488
0.00470699
0.000720039
0.00232378
0.00544393
0.00526713
0.00309143
0.00328736
0.000740534
0.00349174
0.00393067
0.00322017
0.00829721
0.00091334
0.00131218
0.00205538
0.00484199
0.00307796
0.00116262
5.85674e-05
0.000777728
0.000676743
0.00123517
0.00275424
0.00417103
0.0028976
0.00190179
0.00207118
0.00881155
0.00578496
0.00509974
0.00036464
0.00187891
0.00109108
0.00203354
0.000148906
0.000126738
0.00111982
0.00077864
0.000610175
0.00729597
0.00308641
0.00237435
0.000659549
0.00305172
0.0028914
7.42399e-05
0.0081727
0.00686663
0.00434489
0.00698771
0.00139009
0.00757646
0.00336629
0.000214694
0.00171857
0.000466337
0.00878026
0.00298987
0.00226024
0.00143506
8.6929e-05
0.00273547
0.00364608
0.00159878
0.00157044
0.00648199
0.00108128
0.000556521
0.00338159
0.00191397
0.00185945
0.00516712
0.00142742
0.00255727
0.00577315
0.00532961
0.000229992
0.000618096
0.00405883
0.0026898
0.00801034
0.00109703
5.26379e-06
0.00411771
2.405e-05
0.000283074
0.00859428
0.000130984
0.00524164
0.00410265
0.0070379
0.00314806
0.000319657
0.00469981
0.00470111
0.00151144
0.00439603
0.00251763
0.00415344
0.0022518
0.000927345
0.00439243
0.00526485
0.00229746
0.00742491
0.00756138
0.00433362
0.000180433
0.00435138
0.00504013
0.00263611
0.000951103
0.00245523
0.00187147
0.00193992
0.000377301
0.00288926
0.000107325
0.00306682
0.00151526
0.000266882
0.00108044
0.000893845
0.00269734
0.000157858
0.00162523
0.000176883
0.00234147
0.000282677
0.00873384
0.00878775
0.00612758
0.00555542
0.000962196
0.00297362
0.00677122
0.000273964
0.000794602
0.00252645
0.00413985
0.000458905
0.00243445
0.00177273
0.00209365
0.0108274
0.00246535
0.00378842
0.00129431
0.000526928
0.00745761
0.00570387
0.00510435
0.00830774
0.00102805
0.00260416
0.000625924
0.00360336
0.00740371
0.0011551
0.00295864
0.00243716
0.00146468
0.00125543
0.00357849
0.00779731