/*--------------------------------*- C++ -*----------------------------------*\
| =========                 |                                                 |
| \\      /  F ield         | OpenFOAM: The Open Source CFD Toolbox           |
|  \\    /   O peration     | Version:  2212                                  |
|   \\  /    A nd           | Website:  www.openfoam.com                      |
|    \\/     M anipulation  |                                                 |
\*---------------------------------------------------------------------------*/
FoamFile
{
    version     2.0;
    format      ascii;
    arch        "LSB;label=32;scalar=64";
    class       volScalarField;
    location    "0";
    object      stateMean;
}
// * * * * * * * * * * * * * * * * * * * * * * * * * * * * * * * * * * * * * //

dimensions      [0 0 0 1 0 0 0];

internalField   nonuniform List<scalar> 
3200
(
342.752
339.662
340.158
339.628
341.102
340.613
341.492
341.617
341.209
343.018
341.817
340.333
342.112
340.532
340.541
339.837
340.673
341.436
341.534
341.319
334.958
337.068
337.302
333.209
333.746
333.915
334.494
335.327
335.185
336.606
336.087
336.302
336.423
334.432
334.707
335.241
336.527
334.465
334.428
335.463
332.044
330.735
329.699
328.902
329.518
329.382
328.913
329.418
332.192
330.351
329.711
330.721
331.628
332.416
330.522
331.151
329.949
328.898
329.994
331.505
326.562
324.243
324.087
324.071
324.036
323.828
324.496
325.955
326.06
325.09
326.354
327.56
324.59
323.861
323.247
326.104
324.489
324.94
324.364
324.115
321.262
320.295
320.076
317.812
317.663
317.226
318.724
320.321
320.03
318.509
319.06
318.409
318.232
320.796
318.632
317.383
318.252
318.703
320.347
321.531
316.378
313.956
312.313
314.043
312.785
315.544
311.973
313.951
315.644
314.354
316.275
313.914
314.518
314.347
312.866
316.419
314.382
312.848
314.733
313.98
308.915
310.398
307.795
309.28
311.073
309.305
307.189
307.562
308.093
308.441
310.292
306.946
310.008
308.681
309.453
307.908
307.829
307.981
307.45
309.167
302.052
302.455
302.886
302.794
302.901
303.194
303.308
303.538
302.603
305.845
301.529
302.729
300.534
302.223
303.75
302.995
302.546
303.077
301.407
303.738
343.925
341.571
339.659
340.95
338.919
338.656
341.992
340.858
342.087
343.272
341.253
341.791
340.925
341.557
343.244
340.694
338.696
340.765
341.867
341.808
337.692
336.836
335.86
336.959
332.841
338.143
333.88
338.365
338.294
338.531
339.119
337.924
338.72
335.2
337.913
334.601
337.29
335.649
336.838
337.41
334.024
332.105
330.601
328.413
331.99
331.83
329.66
331.89
330.76
329.332
330.125
330.68
331.979
331.091
331.356
329.071
328.958
331.482
331.453
332.714
325.935
324.434
325.69
323.429
323.766
324.622
325.033
324.936
325.777
326.415
324.765
325.336
324.534
325.242
326.158
324.672
323.953
323.028
325.316
326.182
319.577
321.297
319.096
318.265
317.034
320.416
319.84
318.133
319.504
318.293
320.577
319.387
319.69
320.666
319.693
318.775
321.622
320.136
318.887
320.154
313.554
314.809
312.68
313.372
312.906
314.451
313.458
316.667
312.491
313.201
315.448
315.498
314.399
313.607
313.578
312.134
313.472
313.337
312.77
315.643
307.776
311.1
308.432
310.093
307.649
308.571
310.383
308.741
307.257
307.135
307.447
308.375
308.473
306.045
309.492
308.484
308.702
307.539
307.247
308.327
300.408
303.694
303.571
301.884
299.541
302.286
303.398
301.756
301.566
303.703
301.653
302.23
302.82
303.457
303.626
302.771
302.543
303.293
304.263
300.39
344.043
341.339
340.522
340.889
340.454
340.012
341.862
340.854
344.528
343.466
344.993
344.497
342.723
342.275
341.968
340.726
340.56
340.432
342.105
343.411
337.432
336.388
335.268
334.478
335.925
335.322
333.857
335.846
338.221
337.715
338.325
339.4
338.024
337.422
337.567
337.261
335.801
334.366
335.956
335.816
332.872
329.572
329.972
331.249
330.903
328.829
329.614
329.847
331.759
333.352
331.545
331.307
331.649
331.613
331.307
330.917
328.666
330.041
328.67
333.516
324.612
324.666
326.179
323.984
325.587
326.777
325.875
325.753
325.792
325.295
326.741
326.303
325.251
326.664
326.49
327.29
325.287
325.108
325.063
326.674
322.083
317.236
319.739
320.771
320.532
320.248
319.916
320.753
321.134
320.71
318.779
319.945
320.804
318.927
321.339
320.57
319.354
320.01
321.513
319.007
314.356
315.143
312.62
313.081
313.322
313.221
314.224
315.932
315.008
313.665
316.48
314.895
314.926
312.637
313.919
315.08
315.572
314.098
315.607
314.364
309.944
308.371
307.295
310.405
308.964
308.688
307.387
307.458
309.566
306.667
307.435
308.584
308.561
309.704
307.904
309.715
309.459
308.707
309.105
311.171
302.951
302.647
299.475
303.2
303.503
304.242
303.034
302.469
303.01
303.122
303.13
303.616
302.258
302.177
302.866
302.655
303.319
301.951
303.333
302.531
345.92
342.925
343.365
339.531
340.162
342.91
343.493
342.313
345.317
342.844
344.032
343.386
343.473
343.004
343.072
342.601
341.663
342.968
343.708
344.885
338.439
337.634
335.5
337.815
336.712
338.65
336.996
339.424
339.317
339.718
339.444
341.137
339.572
339.444
338.937
336.231
338.038
338.092
337.496
337.29
333.725
333.361
332.944
330.01
331.237
331.873
330.279
330.289
334.079
333.331
333.2
334.197
334.904
331.046
334.972
331.509
330.65
330.422
330.894
335.156
327.394
327.76
327.755
322.058
326.603
324.326
326.511
325.614
327.996
327.185
327.797
325.464
325.149
327.264
326.357
328.153
328.192
326.807
327.248
326.806
320.546
320.108
319.264
318.719
319.245
318.984
320.645
319.926
320.12
321.994
321.225
322.78
320.409
319.871
318.214
319.934
321.439
321.995
321.925
322.527
314.566
314.446
313.201
315.135
314.106
313.414
315.374
314.248
315.68
315.356
315.807
317.218
315.83
316.693
313.008
314.868
312.681
314.508
314.162
314.202
308.287
308.748
308.178
309.918
308.764
310.015
308.247
307.344
310.752
308.264
309.008
309.509
308.962
307.867
310.338
310.591
308.375
308.966
308.225
308.056
301.729
305.529
301.233
303.023
304.329
301.824
302.561
300.97
301.784
304.448
301.642
302.376
304.114
301.123
303.932
302.463
304.539
301.819
302.913
301.959
346.09
343.846
341.655
342.931
344.105
344.107
345.404
346.379
345.779
344.368
346.571
346.282
344.966
344.008
343.303
340.974
341.277
343.418
343.239
344.89
340.491
339.053
336.268
337.001
337.342
335.763
339.114
339.687
339.97
338.04
339.805
339.084
342.152
338.532
339.543
338.65
335.389
337.488
340.453
340.439
333.326
333.904
331.69
334.035
331.858
333.539
332.414
335.098
335.859
335.224
333.649
333.002
332.788
331.911
332.094
332.067
331.51
332.892
333.45
333.406
329.401
325.55
326.044
327.6
326.647
325.681
328.845
326.965
328.641
325.92
327.747
329.775
329.83
325.527
326.924
327.443
325.745
326.978
327.381
327.84
321.674
319.488
320.336
319.51
320.287
319.432
321.163
322.538
321.326
321.689
322.254
323.226
321.858
318.6
319.754
320.136
320.631
320.788
319.843
321.637
314.403
315.816
315.672
314.296
312.645
314.418
315.306
316.064
316.03
312.959
314.752
316.821
318.384
316.065
315.875
314.949
314.153
316.504
315.973
315.018
308.002
309.708
308.236
307.697
310.511
309.513
309.898
309.303
310.009
310.774
308.034
307.127
308.542
309.143
309.073
309.877
309.336
308.937
308.848
309.994
300.942
301.648
303.313
304.566
301.889
304.547
302.994
302.716
303.204
302.066
302.997
303.952
302.882
302.401
303.25
303.079
303.87
303.752
301.403
303.133
346.279
344.142
343.459
344.342
343.854
343.711
345.118
343.62
346.847
347.247
349.599
348.976
346.256
346.284
345.819
346.061
345.456
343.697
345.118
345.728
341.353
338.855
340.956
339.793
339.441
339.842
339.905
340.271
339.765
340.496
339.874
342.917
340.193
339.128
340.461
338.753
339.454
337.95
339.279
341.119
332.164
334.86
332.472
334.419
332.636
333.743
332.364
334.889
334.238
336.448
336.35
333.009
332.471
333.746
333.131
333.337
335.25
332.266
332.489
333.013
329.191
327.382
327.198
327.596
328.058
327.865
329.907
330.505
328.611
326.565
328.59
328.516
326.439
326.963
328.669
327.528
327.517
327.192
327.849
328.556
322.035
323.209
321.981
321.914
319.728
320.882
320.632
321.82
321.609
324.267
322.343
321.941
323.465
320.455
321.917
322.654
320.495
321.019
321.24
322.741
316.188
315.196
315.316
316.313
314.804
313.723
313.317
315.171
317.432
317.23
317.855
316.2
316.361
314.897
315.21
315.77
315.491
316.937
313.49
316.546
308.92
308.43
309.311
307.047
307.63
307.761
307.31
308.428
310.357
311.399
309.567
309.71
310.027
307.855
308.212
309.502
310.097
308.931
311.124
311.392
302.717
302.102
302.246
303.905
302.275
303.54
303.518
301.543
303.853
302.552
301.732
303.94
302.929
302.741
303.239
304.002
302.705
302.3
303.663
302.707
348.81
346.879
344.533
346.276
344.946
346.055
346.954
347.158
348.704
349.99
349.506
350.987
347.432
346.78
347.589
348.546
347.319
346.18
346.969
346.021
341.255
341.4
340.78
338.909
341.161
341.204
342.019
340.153
343.859
341.564
343.163
340.417
342.665
341.041
340.05
340.743
342.226
341.56
341.662
342.555
336.077
335.865
333.614
334.318
333.984
336.732
334.355
334.433
335.881
336.351
336.911
335.889
334.054
336.489
336.024
334.822
333.658
333.38
335.47
337.696
327.579
329.849
327.639
326.277
326.775
328.627
328.018
327.829
330.483
330.843
328.981
328.506
328.389
328.869
332.398
329.749
325.767
327.404
327.077
329.286
322.912
321.768
324.072
321.835
323.831
320.866
321.958
323.986
321.234
322.429
324.456
324.184
321.883
320.573
320.979
323.757
321.137
322.545
323.171
320.531
317.315
315.429
315.648
315.353
316.696
316.911
317.504
316.78
318.347
315.45
317.958
314.791
315.84
316.879
315.083
318.088
314.856
317.068
317.448
316.067
308.82
309.951
309.498
308.562
309.094
310.729
309.717
309.412
309.683
309.331
310.686
308.099
310.949
311.27
310.954
309.533
309.337
309.509
309.989
310.123
304.178
302.115
304.02
304.699
302.102
302.819
302.056
304.076
301.477
304.41
303.059
303.858
303.633
302.311
305.13
301.854
302.69
304.021
304.394
303.367
349.551
347.221
350.76
348.135
348.092
349.45
350.337
348.679
349.222
349.855
352.063
350.368
349.311
348.983
349.109
348.694
348.816
346.288
347.199
351.55
344.839
341.401
340.787
341.11
340.095
342.125
342.087
342.066
345.242
342.15
342.35
343.963
343.04
344.806
342.059
341.545
341.239
340.374
340.54
344.611
340.089
336.048
335.754
335.474
336.483
335.869
336.257
335.696
336.744
335.368
336.978
335.942
338.291
337.642
335.866
335.303
336.977
335.11
337.342
336.254
329.71
330.937
331.275
328.376
329.012
328.38
329.812
331.511
331.111
330.779
329.081
330.224
331.392
330.298
330.398
329.969
328.182
330.555
331.074
331.206
323.927
323.828
324.996
321.346
319.471
321.587
322.012
324.298
323.08
324.859
323.141
323.415
323.889
323.748
323.65
322.204
323.158
322.47
323.683
325.208
317.211
316.28
316.8
314.323
317.104
316.485
315.767
316.126
316.788
317.249
317.112
318.559
318.511
316.452
317.576
316.473
314.906
315.513
317.916
315.883
309.86
309.223
310.703
311.125
309.133
310.837
310.868
311.275
310.51
311.264
308.866
311.138
312.227
312.536
309.005
310.382
310.44
310.184
309.37
309.64
303.243
304.026
302.105
303.119
302.666
303.711
301.31
304.517
303.492
301.894
305.042
303.986
305.172
303.672
303.386
302.986
303.737
304.861
303.385
302.025
353.727
350.137
351.267
349.415
349.78
350.221
350.868
349.111
352.492
351.677
350.886
350.313
353.022
350.996
351.398
350.012
351.551
351.348
351.269
351.893
344.954
346.05
344.791
342.504
342.434
345.106
342.99
346.444
345.142
345.716
346.281
345.883
344.83
345.477
343.072
341.946
343.485
345.757
346.245
344.947
337.267
339.619
336.658
337.705
336.391
337.154
335.697
337.753
339.721
338.248
338.195
338.431
338.835
339.022
337.002
338.586
338.435
336.197
337.597
340.103
331.996
331.432
330.306
331.213
332.714
329.708
332.221
331.408
331.939
332.556
332.29
333.268
330.594
331.435
331.479
331.384
330.482
333.115
331.092
333.498
325.382
324.271
323.675
323.453
322.969
325.457
323.799
322.846
324.317
324.497
325.613
324.287
325.001
324.586
325.559
323.096
323.454
323.597
326.357
323.046
315.506
318.279
315.827
315.15
317.061
318.891
316.937
317.431
316.753
317.088
319.21
315.777
318.723
316.078
318.436
315.722
317.441
318.159
316.171
317.201
310.527
309.191
311.253
309.246
310.79
311.547
310.344
311.378
308.987
311.215
310.807
310.445
312.015
310.244
311.581
310.458
310.705
308.513
310.399
309.959
302.976
302.393
303.122
303.561
304.66
302.483
302.824
304.375
301.899
302.18
303.522
304.322
303.718
303.236
303.386
304.524
302.232
301.538
302.874
303.085
352.037
352.809
351.323
352.779
352.629
352.247
351.03
354.895
349.197
353.719
354.853
353.905
350.773
353.157
352.386
351.693
352.103
351.399
352.722
353.686
347.732
343.561
344.552
344.235
345.474
344.697
344.913
344.355
347.441
344.705
345.422
347.254
344.366
345.043
343.956
345.035
343.754
346.664
344.019
346.876
338.467
339.381
337.429
337.063
338.664
338.462
339.298
338.577
339.588
339.338
340.155
340.385
338.213
339.865
339.826
337.847
338.494
336.96
340.036
341.092
332.749
331.762
331.42
331.8
331.075
330.714
332.062
331.263
331.944
332.926
332.601
332.303
332.036
331.586
332.494
332.904
331.414
331.01
331.127
331.421
326.226
324.224
324.366
325.479
323.646
323.673
324.358
324.566
325.25
324.31
324.906
326.009
322.691
325.661
325.803
323.774
325.683
323.385
326.18
324.987
317.058
319.229
318.843
318.632
315.735
316.167
317.303
317.221
316.408
316.82
318.324
320.622
317.795
318.479
320.327
315.86
316.706
317.995
317.914
319.346
309.775
310.205
310.147
312.02
308.971
310.117
309.148
308.032
309.249
310.328
312.418
310.149
310.853
310.083
312.774
311.841
313.318
312.43
310.807
308.574
302.767
302.108
302.077
302.947
303.193
301.58
303.796
303.995
304.469
303.963
303.161
305.771
303.532
304.527
305.413
304.71
301.192
302.972
302.237
303.749
355.424
355.033
354.137
353.918
355.075
353.109
354.708
353.375
355.534
354.148
355.82
356.238
356.2
353.877
353.441
354.759
354.139
354.323
355.209
355.04
346.212
345.516
346.221
345.638
346.63
345.472
345.981
346.05
348.356
345.937
345.992
347.681
346.136
347.699
346.363
349.97
345.888
344.929
345.853
348.99
339.807
339.19
339.601
339.546
342.384
340.267
338.686
339.227
340.636
341.476
342.156
341.58
341.958
340.241
340.077
340.46
340.701
340.282
340.306
341.308
335.349
333.921
332.033
333.049
334.238
333.532
332.39
331.557
335.281
332.743
334.397
334.582
332.844
334.17
332.648
331.328
334.978
330.527
333.191
333.393
324.838
328.123
324.398
324.559
328.778
325.54
326.103
325.746
326.06
325.175
328.38
326.485
324.601
326.149
324.929
324.666
325.681
326.555
326.177
325.295
318.089
319.431
318.199
318.755
318.963
316.591
318.087
318.056
318.24
317.533
318.863
317.935
317.591
318.041
317.891
317.649
318.783
319.429
317.977
318.934
311.438
309.548
310.645
312.019
310.604
311.645
312.098
310.03
312.628
311.787
310.346
313.226
313.141
314.359
311.18
312.622
311.812
311.665
311.763
311.796
305.402
302.982
304.394
303.708
304.868
302.602
303.848
303.409
305.466
304.799
303.327
305.19
302.478
304.022
304.591
303.335
304.142
303.257
306.21
302.751
358.963
358.388
356.497
356.731
357.305
355.401
357.201
356.129
355.844
355.953
358.306
356.719
355.521
357.462
356.833
355.964
356.842
359.341
357.029
359.124
353.571
348.602
348.322
348.757
347.951
348.715
347.068
351.166
348.721
349.444
349.351
349.204
349.417
352.091
350.588
347.693
350.107
349.794
349.741
351.922
345.193
342.872
344.307
342.372
341.591
339.693
340.044
341.569
342.599
342.684
342.096
340.007
341.874
341.19
342.165
341.406
342.7
343.139
344.474
342.946
335.129
337.152
335.01
335.896
331.478
333.486
334.708
335.42
334.965
334.322
333.54
334.132
335.009
332.423
333.484
334.689
332.827
332.829
335.277
335.627
327.193
328.302
326.186
325.834
324.658
326.696
327.147
326.43
326.653
326.144
328.776
325.355
328.74
328.191
327.331
326.469
324.414
327.594
327.895
328.358
320.439
318.827
319.811
318.84
321.136
319.152
319.958
319.311
319.247
320.404
319.462
319.958
319.714
320.566
319.164
317.673
318.208
320.084
320.443
319.213
311.859
312.397
312.552
310.682
309.614
311.432
311.673
310.889
312.931
314.29
311.709
310.574
312.676
310.175
312.341
312.663
309.088
314.269
313.136
314.34
302.95
305.274
304.983
302.834
302.948
304.479
305.686
306.082
303.298
302.825
304.33
302.572
305.117
303.46
303.962
302.873
301.645
303.099
304.839
303.525
360.103
360.225
356.179
355.863
358.317
356.531
357.377
356.535
357.806
357.13
360.056
358.193
358.477
359.262
358.387
355.398
358.621
358.633
358.839
360.519
352.428
348.825
349.774
348.98
352.061
349.513
349.714
349.216
350.783
349.369
349.412
351.852
349.346
351.748
349.172
350.999
349.308
351.591
348.471
352.282
344.624
346.25
342.833
343.837
342.717
341.285
343.648
344.386
343.257
343.408
342.193
343.551
342.09
343.327
341.574
343.643
342.016
344.617
345.202
344.976
337.163
337.442
337.549
335.355
337.336
334.002
332.78
335.489
335.7
336.403
335.303
336.552
336.348
334.273
335.934
334.737
333.839
332.713
335.426
335.289
329.892
329.193
328.442
328.369
328.058
328.766
326.705
328.722
326.897
327.891
327.372
328.951
327.323
327.966
327.289
328.172
326.313
327.778
327.939
327.97
319.838
319.516
319.922
317.704
318.887
319.948
319.541
321.762
317.93
319.162
319.336
320.299
320.92
318.776
321.628
320.211
318.802
320.052
319.158
319.764
313.532
312.5
312.599
312.522
312.768
311.217
312.054
312.127
310.726
313.171
310.94
310.581
312.75
310.013
313.292
313.261
310.014
312.17
311.164
315.466
303.204
304.408
302.604
304.359
305.325
304.066
303.171
304.154
304.533
302.994
303.945
303.224
304.485
302.837
303.762
304.712
303.865
303.256
304.657
304.238
363.759
361.985
360.026
362.193
360.668
357.893
358.202
360.917
361.591
362.098
360.993
360.646
358.223
363.03
360.336
359.467
359.697
357.473
361.261
362.936
356.721
352.931
353.382
353.269
351.796
351.169
352.808
351.314
350.217
355.873
354.02
353.481
351.883
350.78
351.773
350.705
351.759
354.41
353.418
352.746
346.798
348.096
345.374
344.671
345.724
344.892
345.423
345.202
345.617
345.412
345.392
344.949
344.431
343.757
345.553
344.479
344.96
345.518
345.563
345.085
336.678
338.046
336.581
337.313
334.414
335.293
336.852
335.723
336.242
339.274
338.03
336.106
337.367
337.724
336.974
337.883
336.783
335.511
336.649
337.663
328.694
330.061
328.162
328.413
328.864
328.213
328.041
328.917
327.427
328.66
326.425
329.742
327.404
328.258
327.777
330.33
327.163
328.122
329.489
330.769
321.162
320.244
320.324
320.231
319.37
320.103
320.94
319.077
321.166
322.195
320.644
320.68
321.285
319.312
320.896
320.435
320.099
320.03
321.32
321.574
313.244
311.82
313.031
312.956
312.298
314.012
312.103
311.748
311.775
313.428
311.693
312.942
312.179
312.37
311.899
311.069
312.967
314.668
312.204
311.151
304.208
303.087
304.099
303.122
304.5
302.202
304.961
306.533
304.493
303.606
302.479
303.234
303.499
303.568
304.076
302.405
302.868
305.318
303.512
303.514
362.46
363.063
362.854
363.426
360.145
360.894
360.884
363.755
363.514
362.32
361.271
361.886
363.842
363.806
362.09
361.96
362.783
359.868
363.071
364.928
356.19
353.021
356.308
353.435
354.255
353.076
351.597
352.917
353.012
353.339
353.252
354.218
353.749
353.674
353.84
353.56
352.985
353.605
352.444
355.268
347.471
346.754
346.475
345.324
345.641
346.19
344.574
345.803
346.648
345.969
346.326
346.088
345.184
346.919
346.481
345.323
344.304
345.804
346.156
345.806
337.514
336.229
336.133
336.857
337.289
337.107
338.112
336.99
337.018
337.379
336.171
335.909
339.35
338.345
336.702
337.456
337.4
337.368
338.27
338.812
332.306
329.28
326.771
328.13
329.028
329.736
330.086
331.182
328.257
328.85
328.931
328.975
329.378
330.184
329.14
327.863
329.976
332.134
331.064
330.55
323.182
321.793
320.924
320.412
320.106
323.128
321.342
321.804
320.036
321.155
321.44
324.542
321.354
320.181
320.94
320.955
322.975
321.105
321.097
320.166
310.94
312.61
311.504
313.511
312.666
312.421
311.978
312.646
312.514
311.347
313.01
312.132
312.257
311.791
312.162
312.463
310.679
313.297
314.051
313.619
304.773
303.248
306.225
303.254
304.377
303.11
303.752
305.442
304.789
302.174
303.59
304.716
304.953
303.343
305.194
304.245
304.819
303.618
304.845
305.222
367.474
365.503
365.07
364.227
365.479
362.793
362.699
362.768
363.41
364.957
363.147
364.592
363.305
363.278
365.306
363.62
362.666
364.576
365.357
365.225
357.353
358.709
355.44
356.629
355.333
356.602
354.074
354.418
356.06
355.857
354.538
356.206
354.587
355.906
355.551
355.612
357.718
356.576
357.137
357.65
348.389
350.728
348.025
346.895
347.987
345.828
346.488
348.16
345.497
345.036
347.372
346.993
348.732
345.685
348.493
346.919
346.253
346.899
348.219
348.765
340.686
339.345
340.108
338.82
339.052
338.71
339.639
337.887
339.582
339.023
337.196
338.529
339.525
340.531
336.84
337.505
337.361
338.142
339.496
336.924
330.865
332.587
329.609
330.406
330.712
331.688
329.123
329.795
330.187
330.478
329.998
330.614
329.27
331.516
329.134
330.662
330.656
332.817
331.758
331.485
321.204
321.958
321.046
320.788
321.437
321.485
321.201
321.839
321.805
323.966
322.612
322.373
321.801
322.542
320.596
321.461
324.069
323.604
322.75
323.566
312.381
310.466
311.808
312.955
313.453
312.793
310.212
313.913
313.696
313.444
313.022
312.133
311.836
313.46
312.448
314.943
312.55
312.687
313.894
313.415
303.732
305.876
303.879
303.544
306.088
302.717
304.276
304.539
305.59
305.176
306.795
304.689
304.353
305.599
304.346
304.245
301.707
304.353
305.899
305.546
368.708
367.384
366.234
364.752
364.869
366.146
365.182
365.946
365.398
366.123
366.609
365.31
364.938
365.951
363.977
363.82
364.886
366.417
367.825
367.976
358.4
357.202
358.524
358.422
357.16
357.814
356.996
358.134
357.043
357.622
358.069
357.754
357.776
357.064
358.006
358.436
357.815
358.483
357.643
360.58
351.787
350.93
350.819
348.634
348.019
346.773
349.11
348.983
348.418
347.874
349.16
348.45
348.642
349.937
345.357
348.196
350.292
349.333
348.977
351.324
341.877
341.729
342.891
339.789
341.096
340.062
339.106
337.857
340.802
339.418
339.595
340.908
340.804
341.55
337.622
341.417
341.147
340.019
339.863
341.607
333.371
332.32
331.01
332.386
330.965
330.553
330.508
329.993
330.316
330.846
331.692
331.761
330.791
329.917
333.314
329.841
330.414
331.065
333.895
332.016
322.263
323.58
323.202
323.39
321.118
320.77
320.545
322.318
320.879
321.556
321.297
323.717
321.078
322.687
322.728
321.428
321.369
322.055
323.653
320.957
314.522
312.343
311.384
316.059
313.432
313.647
311.685
313.606
312.891
315.049
314.646
313.249
312.82
314.143
311.725
310.932
314.462
312.161
313.761
314.295
303.85
306.059
303.155
305.277
302.278
303.871
305.459
304.452
302.871
304.655
303.919
305.108
304.428
303.523
305.559
302.579
304.269
302.489
304.275
304.32
369.951
371.05
368.309
369.022
367.108
368.581
367.399
366.15
368.907
366.559
367.361
368.119
366.781
366.762
368.42
370.351
367.77
367.821
368.073
372.025
361.605
360.375
361.143
358.257
359.539
357.859
359.565
358.434
358.972
358.037
356.715
359.074
357.453
359.775
359.078
357.866
359.005
357.829
361.166
361.872
352.208
353.849
350.412
350.587
349.292
347.102
350.611
350.321
350.636
350.682
349.599
350.142
351.375
349.932
349.206
349.577
349.533
349.79
351.4
350.705
343.673
340.578
340.862
341.42
341.701
340.97
340.685
341.1
340.806
337.785
341.825
341.75
341.664
342.046
341.262
339.711
341.175
340.437
341.916
342.809
333.154
332.516
332.389
331.496
331.047
333.153
330.86
331.664
332.181
331.388
330.636
331.09
330.727
332.335
332.65
331.692
333.016
332.233
334.298
333.504
325.361
324.899
323.33
320.847
322.438
324.427
322.677
321.445
323.698
323.046
323.987
323.67
323.733
323.18
324.912
321.508
322.297
322.725
321.992
322.716
312.529
315.451
313.366
315.194
313.521
313.285
314.608
313.724
312.654
313.069
313.087
315.409
313.016
312.87
313.612
314.01
314.206
312.216
314.791
313.785
303.542
305.766
305.361
305.331
305.435
304.866
303.66
304.207
305.891
306.576
305.187
306.634
304.457
302.749
304.432
304.413
304.317
302.006
302.653
302.804
372.83
372.419
371.415
369.513
369.309
368.169
368.945
370.415
370.328
369.331
368.352
368.018
368.643
368.408
368.524
367.829
368.419
369.491
371.931
371.219
361.922
362.531
359.92
362.04
360.391
362.559
362.953
363.296
359.754
363.376
362.469
360.939
362.803
360.373
362.674
358.1
362.174
360.847
362.415
362.539
354.696
354.806
351.998
351.148
348.748
350.67
349.729
352.075
351.667
350.502
349.217
350.418
350.264
351.897
351.294
352.028
349.633
352.751
350.139
354.407
343.645
343.464
343.447
341.357
341.234
340.864
339.935
342.568
343.388
340.8
342.294
341.653
342.842
341.547
341.558
340.424
342.903
343.775
341.043
343.536
333.556
334.444
333.579
332.702
333.871
330.354
332.129
332.242
331.077
330.722
333.192
331.436
332.599
332.987
334.3
333.24
333.546
332.768
332.923
332.591
324.65
322.997
323.679
323.577
323.375
322.173
322.873
323.056
323.154
322.532
323.526
321.125
321.928
325.598
323.822
324.119
324.87
325.491
324.923
323.27
314.896
315.345
314.702
314.407
312.099
314.854
314.759
314.376
313.348
314.66
314.352
315.386
316.053
315.539
314.153
311.992
312.107
312.099
314.822
312.547
301.976
305.596
306.001
304.044
303.372
303.728
305.652
305.084
304.591
302.315
305.015
303.934
303.926
305.412
304.816
305.448
303.828
304.74
302.841
307.111
372.658
372.954
370.466
372.439
371.037
368.311
369.916
369.08
372.961
368.663
369.282
370.302
371.182
370.364
370.35
369.098
372.914
369.413
372.443
372.702
364.089
363.389
361.795
362.141
359.895
360.701
359.125
359.733
358.473
361.291
362.281
360.01
358.388
360.16
360.795
361.533
363.064
363.273
363.318
365.762
356.025
353.148
351.001
351.576
350.869
352.969
349.489
351.747
352.523
350.611
351.145
349.145
351.256
350.482
351.533
353.858
352.708
351.939
352.147
354.546
343.54
343.617
344.032
342.712
341.943
342.824
341.743
344.383
340.315
343.841
340.963
343.299
342.832
342.125
344.151
341.642
341.487
342.925
343.255
345.773
333.26
334.136
335.457
335.148
332.502
332.723
332.289
332.942
334.543
334.243
333.825
333.761
334.541
333.224
333.621
334.71
333.887
332.83
333.974
334.061
323.913
322.828
323.232
323.384
322.728
324.026
321.457
324.509
324.59
326.035
324.089
322.419
325.515
322.277
322.239
324.559
324.414
324.126
324.09
323.758
314.158
316.795
314.435
314.538
315.006
312.642
313.999
312.748
314.873
312.918
313.379
313.321
313.86
314.795
313.491
315.917
313.42
315.848
314.149
315.351
304.36
303.607
303.163
305.152
304.883
304.891
304.835
305.07
303.681
306.843
303.799
307.099
305.461
305.704
305.184
304.078
307.143
305.507
306.773
304.524
)
;

boundaryField
{
    hotSide
    {
        type            fixedGradient;
        gradient        nonuniform List<scalar> 
400
(
321.511
322.87
325.591
329.677
335.133
341.965
350.181
359.788
370.794
383.208
397.037
412.289
428.971
447.088
466.647
487.651
510.105
534.011
559.372
586.191
323.738
325.08
327.767
331.802
337.194
343.949
352.078
361.591
372.498
384.81
398.537
413.687
430.268
448.289
467.755
488.672
511.043
534.872
560.161
586.913
326.149
327.47
330.116
334.091
339.406
346.071
354.099
363.503
374.296
386.491
400.101
415.136
431.606
449.52
468.885
489.706
511.988
535.735
560.948
587.63
328.704
330
332.597
336.503
341.73
348.292
356.205
365.485
376.15
388.215
401.695
416.604
432.954
450.753
470.009
490.73
512.919
536.579
561.714
588.325
331.33
332.599
335.142
338.97
344.099
350.546
358.332
367.477
378.003
389.928
403.271
418.047
434.27
451.949
471.095
491.712
513.807
537.382
562.439
588.978
333.918
335.158
337.643
341.389
346.414
352.74
360.392
369.397
379.779
391.562
404.765
419.407
435.503
453.065
472.101
492.618
514.622
538.114
563.096
589.569
336.321
337.531
339.959
343.622
348.544
354.751
362.274
371.142
381.385
393.031
406.101
420.618
436.595
454.047
472.983
493.409
515.33
538.747
563.663
590.076
338.36
339.543
341.92
345.509
350.339
356.44
363.847
372.595
382.718
394.244
407.2
421.608
437.485
454.844
473.695
494.045
515.897
539.253
564.114
590.478
339.852
341.015
343.352
346.885
351.645
357.665
364.985
373.643
383.675
395.113
407.984
422.312
438.116
455.407
474.197
494.491
516.294
539.606
564.428
590.758
340.643
341.795
344.11
347.613
352.334
358.311
365.584
374.193
384.176
395.567
408.393
422.679
438.443
455.699
474.456
494.722
516.498
539.788
564.589
590.901
340.643
341.795
344.11
347.613
352.334
358.311
365.584
374.193
384.176
395.567
408.393
422.679
438.443
455.699
474.456
494.722
516.498
539.788
564.589
590.901
339.852
341.015
343.352
346.885
351.645
357.665
364.985
373.643
383.675
395.113
407.984
422.312
438.116
455.407
474.197
494.491
516.294
539.606
564.428
590.758
338.36
339.543
341.92
345.509
350.339
356.44
363.847
372.595
382.718
394.244
407.2
421.608
437.485
454.844
473.695
494.045
515.897
539.253
564.114
590.478
336.321
337.531
339.959
343.622
348.544
354.751
362.274
371.142
381.385
393.031
406.101
420.618
436.595
454.047
472.983
493.409
515.33
538.747
563.663
590.076
333.918
335.158
337.643
341.389
346.414
352.74
360.392
369.397
379.779
391.562
404.765
419.407
435.503
453.065
472.101
492.618
514.622
538.114
563.096
589.569
331.33
332.599
335.142
338.97
344.099
350.546
358.332
367.477
378.003
389.928
403.271
418.047
434.27
451.949
471.095
491.712
513.807
537.382
562.439
588.978
328.704
330
332.597
336.503
341.73
348.292
356.205
365.485
376.15
388.215
401.695
416.604
432.954
450.753
470.009
490.73
512.919
536.579
561.714
588.325
326.149
327.47
330.116
334.091
339.406
346.071
354.099
363.503
374.296
386.491
400.101
415.136
431.606
449.52
468.885
489.706
511.988
535.735
560.948
587.63
323.738
325.08
327.767
331.802
337.194
343.949
352.078
361.591
372.498
384.81
398.537
413.687
430.268
448.289
467.755
488.672
511.043
534.872
560.161
586.913
321.511
322.87
325.591
329.677
335.133
341.965
350.181
359.788
370.794
383.208
397.037
412.289
428.971
447.088
466.647
487.651
510.105
534.011
559.372
586.191
)
;
    }
    coldSide
    {
        type            mixed;
        refValue        uniform 300;
        refGradient     uniform 0;
        valueFraction   uniform 0.991591;
        source          uniform 0;
        value           nonuniform List<scalar> 
400
(
300.017
300.003
300.025
300.015
300.008
300.023
300.035
300.027
300.025
300.023
300.045
300.025
300.027
300.035
300.04
300.031
300.032
300.03
300.017
300.037
300.021
300.031
300.022
300.046
300.014
300.018
300.018
300.034
300.02
300.018
300.025
300.044
300.037
300.026
300.027
300.049
300.051
300.048