/*--------------------------------*- C++ -*----------------------------------*\
| =========                 |                                                 |
| \\      /  F ield         | OpenFOAM: The Open Source CFD Toolbox           |
|  \\    /   O peration     | Version:  2212                                  |
|   \\  /    A nd           | Website:  www.openfoam.com                      |
|    \\/     M anipulation  |                                                 |
\*---------------------------------------------------------------------------*/
FoamFile
{
    version     2.0;
    format      ascii;
    arch        "LSB;label=32;scalar=64";
    class       volScalarField;
    location    "./ITHACAoutput/true/5.1";
    object      error;
}
// * * * * * * * * * * * * * * * * * * * * * * * * * * * * * * * * * * * * * //

dimensions      [0 0 0 1 0 0 0];

internalField   nonuniform List<scalar> 
3200
(
-2.39715
-2.55453
-2.58306
-2.36552
-2.10218
-1.60563
-0.957548
-0.447968
0.0960794
0.419416
0.636216
0.722447
0.674834
0.598676
0.328518
0.306355
0.34872
0.51355
0.733713
1.15662
-1.98352
-2.05552
-2.10424
-1.95735
-1.67926
-1.27234
-0.881214
-0.385113
0.076523
0.440432
0.583879
0.670964
0.56762
0.494288
0.338916
0.281756
0.277716
0.463509
0.664387
1.06498
-1.60871
-1.73325
-1.73964
-1.68507
-1.3647
-1.02218
-0.676681
-0.317596
0.119203
0.400998
0.579648
0.594608
0.588487
0.450875
0.316411
0.251206
0.305931
0.488702
0.520585
0.861794
-1.2464
-1.31471
-1.43258
-1.27099
-1.13122
-0.854826
-0.523812
-0.209847
0.163372
0.278667
0.454123
0.574572
0.468761
0.366484
0.318755
0.205014
0.230633
0.292998
0.494351
0.711181
-0.926299
-1.02697
-0.961425
-1.05489
-0.88177
-0.634627
-0.38802
-0.063513
0.120737
0.256032
0.416531
0.438076
0.331705
0.339497
0.243159
0.162249
0.172191
0.274935
0.391172
0.52249
-0.669281
-0.683486
-0.736382
-0.728992
-0.612704
-0.454183
-0.268207
-0.06946
0.172611
0.222143
0.318143
0.335172
0.306645
0.295824
0.172723
0.141617
0.0949986
0.22567
0.288747
0.376242
-0.447672
-0.361119
-0.44292
-0.442936
-0.344731
-0.250355
-0.196221
0.0169046
0.0367013
0.181662
0.188259
0.164768
0.220154
0.207732
0.100693
0.08368
0.0325928
0.0826984
0.214196
0.189067
-0.162417
-0.141912
-0.146685
-0.116598
-0.116908
-0.0646605
-0.00868189
0.074914
-0.0171469
0.0604808
0.0369323
0.0662744
0.124412
0.0438533
-0.0113795
-0.0496031
0.042352
0.0321927
0.108936
0.0199297
-3.18291
-3.39049
-3.43105
-3.33663
-2.99519
-2.60346
-2.12475
-1.52783
-0.950922
-0.584582
-0.359901
-0.296071
-0.390717
-0.397239
-0.609083
-0.61964
-0.576864
-0.427658
-0.0659813
0.368655
-2.56401
-2.77172
-2.8204
-2.74943
-2.47448
-2.08984
-1.61423
-1.21075
-0.750172
-0.420701
-0.214746
-0.240917
-0.266906
-0.315549
-0.306375
-0.445631
-0.410486
-0.285522
-0.0260411
0.354909
-2.06441
-2.26536
-2.35819
-2.26143
-1.97805
-1.71116
-1.32961
-0.850807
-0.582019
-0.192597
-0.133054
-0.0183161
-0.160367
-0.138288
-0.258985
-0.352534
-0.30009
-0.194125
0.0668955
0.286887
-1.73001
-1.85063
-1.79654
-1.69175
-1.55006
-1.2756
-0.981382
-0.638881
-0.382306
-0.143527
-0.0432555
-0.0167686
-0.0513802
-0.143414
-0.24121
-0.224482
-0.214652
-0.0978791
0.0410675
0.27643
-1.32869
-1.43178
-1.35721
-1.30314
-1.16956
-0.955543
-0.773281
-0.537802
-0.266201
-0.110913
-0.010455
0.00960307
0.0229005
-0.0719871
-0.0980251
-0.223621
-0.127284
-0.101343
0.0921533
0.257619
-0.92526
-0.94006
-0.958747
-0.913919
-0.848
-0.637931
-0.53047
-0.346555
-0.243503
-0.0403746
-0.0371986
0.000632134
-0.0382484
-0.0599547
-0.0448352
-0.0959029
-0.122506
-0.00447579
0.0565874
0.21893
-0.548099
-0.574987
-0.553892
-0.506789
-0.450341
-0.39693
-0.396985
-0.221244
-0.0515286
-0.10542
-0.00914892
-0.0144483
0.00326046
0.0315719
-0.0854581
-0.0541928
-0.0444981
-0.0203147
0.0426158
0.0844086
-0.146114
-0.18131
-0.183168
-0.210962
-0.170989
-0.123701
-0.110406
-0.0285466
0.0455929
-0.0402176
0.0108537
-0.00504229
-0.0494399
-0.0584165
0.00844478
0.0197554
-0.0396533
0.0424523
-0.044152
0.020166
-4.13535
-4.39626
-4.58074
-4.37851
-4.10058
-3.74922
-3.24621
-2.71854
-2.28906
-1.9153
-1.68429
-1.56169
-1.6421
-1.6564
-1.70328
-1.72498
-1.64218
-1.41753
-1.08499
-0.588035
-3.48693
-3.63657
-3.72535
-3.65418
-3.44166
-3.11651
-2.65689
-2.27709
-1.7952
-1.48807
-1.27936
-1.1733
-1.26955
-1.33255
-1.37177
-1.42329
-1.4027
-1.16312
-0.801898
-0.454596
-2.80263
-2.94424
-3.06495
-3.0252
-2.79962
-2.50823
-2.18496
-1.68756
-1.48565
-1.19879
-1.0332
-0.906398
-0.95001
-1.00177
-1.15231
-1.14547
-1.0845
-0.913054
-0.63323
-0.378705
-2.15969
-2.40814
-2.39671
-2.29972
-2.25254
-1.99594
-1.63118
-1.40159
-1.05975
-0.921586
-0.758702
-0.693198
-0.780955
-0.806027
-0.837367
-0.92577
-0.860578
-0.677958
-0.408492
-0.206452
-1.66196
-1.8203
-1.76927
-1.7745
-1.68395
-1.4504
-1.3079
-1.03906
-0.8239
-0.678602
-0.563492
-0.511956
-0.53938
-0.631128
-0.682572
-0.60648
-0.656887
-0.436269
-0.373954
-0.16796
-1.19555
-1.29398
-1.29267
-1.2481
-1.13888
-1.08294
-0.891606
-0.691142
-0.537991
-0.427168
-0.39538
-0.388559
-0.388369
-0.406208
-0.422078
-0.422638
-0.382482
-0.337743
-0.209087
-0.109425
-0.722429
-0.707019
-0.808991
-0.744851
-0.671101
-0.692375
-0.525941
-0.346678
-0.332333
-0.293665
-0.239717
-0.221028
-0.198439
-0.237668
-0.238275
-0.284842
-0.24259
-0.15991
-0.169334
-0.0339562
-0.296793
-0.232132
-0.277767
-0.268173
-0.249402
-0.229803
-0.171142
-0.125752
-0.131216
-0.059227
-0.0684391
-0.0846832
-0.0121597
-0.0825884
-0.0836817
-0.154267
-0.0490799
-0.0728551
-0.038768
-0.0385642
-4.98272
-5.31034
-5.52209
-5.48808
-5.30565
-4.94589
-4.47929
-3.97446
-3.55617
-3.18392
-2.96932
-2.82366
-2.77686
-2.88029
-2.90652
-2.90548
-2.72865
-2.37857
-1.91635
-1.46054
-4.18815
-4.46413
-4.56762
-4.52354
-4.47297
-4.06311
-3.73138
-3.32116
-2.90216
-2.64282
-2.41941
-2.36424
-2.4312
-2.3841
-2.39433
-2.35315
-2.19618
-1.96591
-1.60246
-1.25243
-3.44321
-3.62824
-3.71532
-3.73834
-3.61886
-3.37733
-3.05597
-2.6302
-2.36165
-2.10524
-1.92374
-1.88748
-1.84989
-1.84135
-1.983
-1.97304
-1.86854
-1.67631
-1.30512
-0.937443
-2.74693
-2.97141
-3.02732
-2.94892
-2.93466
-2.66852
-2.39945
-2.17914
-1.94492
-1.64601
-1.51236
-1.53998
-1.49449
-1.45921
-1.54412
-1.56967
-1.43761
-1.27577
-0.977343
-0.733934
-2.06101
-2.23898
-2.27501
-2.25448
-2.1592
-1.97891
-1.80602
-1.61791
-1.44109
-1.24239
-1.12411
-1.05812
-1.10335
-1.1081
-1.16043
-1.14177
-1.12451
-0.970923
-0.717741
-0.562846
-1.47331
-1.53468
-1.59115
-1.54625
-1.58572
-1.37922
-1.25233
-1.1264
-0.936049
-0.874687
-0.75604
-0.849891
-0.76382
-0.798181
-0.747565
-0.837782
-0.822288
-0.670983
-0.529666
-0.417411
-0.826613
-0.942898
-0.945399
-0.91415
-0.922239
-0.840942
-0.747982
-0.722226
-0.60579
-0.462131
-0.43925
-0.455901
-0.506922
-0.432108
-0.453245
-0.432699
-0.446022
-0.448672
-0.319622
-0.359078
-0.336422
-0.295002
-0.333077
-0.30166
-0.310306
-0.243334
-0.226757
-0.205837
-0.184409
-0.185748
-0.209849
-0.116826
-0.144883
-0.160744
-0.109604
-0.164534
-0.138674
-0.162885
-0.151841
-0.0330884
-5.70448
-6.09829
-6.3083
-6.38207
-6.17372
-6.02284
-5.59842
-5.23526
-4.70869
-4.46666
-4.12751
-3.98374
-3.94543
-3.95282
-3.99287
-3.82117
-3.57524
-3.2328
-2.74582
-2.20953
-4.86631
-5.07537
-5.3315
-5.34886
-5.1819
-5.02829
-4.63132
-4.26448
-3.96563
-3.66762
-3.43083
-3.2937
-3.278
-3.32465
-3.35913
-3.1109
-3.03498
-2.72905
-2.23263
-1.8679
-3.93765
-4.18149
-4.39735
-4.41807
-4.31444
-4.10287
-3.86246
-3.47258
-3.22799
-3.02085
-2.83224
-2.71752
-2.67339
-2.72644
-2.75855
-2.63341
-2.46128
-2.22063
-1.88512
-1.44725
-3.12812
-3.33815
-3.45312
-3.50772
-3.4425
-3.2905
-3.08826
-2.7978
-2.56289
-2.37942
-2.2323
-2.11203
-2.16285
-2.12236
-2.16212
-2.0563
-1.93509
-1.76462
-1.47401
-1.13364
-2.4347
-2.59095
-2.63076
-2.67537
-2.67816
-2.48892
-2.28772
-2.14735
-1.92355
-1.74884
-1.69717
-1.64914
-1.61911
-1.59085
-1.64127
-1.52008
-1.52456
-1.34788
-1.09771
-0.909589
-1.73617
-1.82719
-1.91861
-1.8746
-1.89331
-1.71952
-1.65175
-1.56231
-1.37753
-1.25003
-1.24396
-1.1722
-1.15447
-1.10858
-1.09743
-1.06428
-1.03832
-0.966576
-0.760125
-0.606649
-0.984442
-1.0931
-1.05219
-1.0737
-1.12837
-1.10693
-1.02366
-0.877053
-0.804892
-0.72495
-0.722608
-0.707999
-0.690361
-0.683853
-0.685189
-0.659991
-0.61202
-0.583153
-0.505518
-0.334947
-0.290926
-0.395406
-0.499364
-0.324354
-0.324604
-0.313109
-0.299611
-0.254807
-0.246954
-0.231918
-0.213685
-0.223845
-0.258959
-0.215468
-0.25865
-0.215066
-0.238506
-0.182865
-0.125351
-0.126515
-6.31026
-6.74437
-7.05465
-7.1196
-7.10639
-6.86003
-6.49817
-6.09914
-5.77713
-5.4339
-5.14454
-5.06149
-4.92319
-4.90189
-4.73033
-4.62418
-4.34708
-3.91937
-3.31606
-2.71457
-5.2876
-5.65352
-5.94623
-5.98759
-5.9681
-5.74563
-5.45321
-5.1336
-4.87051
-4.52991
-4.37235
-4.21076
-4.20259
-4.14482
-3.99439
-3.90093
-3.6303
-3.24186
-2.74613
-2.22892
-4.34861
-4.63283
-4.79693
-4.92921
-4.89043
-4.72977
-4.51073
-4.20785
-4.03485
-3.71861
-3.58076
-3.42666
-3.45577
-3.33576
-3.3009
-3.20717
-3.00223
-2.70555
-2.26621
-1.9414
-3.47728
-3.72182
-3.87545
-3.87312
-3.85979
-3.83058
-3.63476
-3.41544
-3.22515
-2.97069
-2.85064
-2.83302
-2.77614
-2.70849
-2.66898
-2.58023
-2.41859
-2.07866
-1.84421
-1.45421
-2.72891
-2.86335
-2.86323
-3.03933
-2.97761
-2.90546
-2.79089
-2.55746
-2.48458
-2.28915
-2.24682
-2.15366
-2.08602
-1.98172
-2.0267
-1.89491
-1.79026
-1.57634
-1.38174
-1.13994
-1.85042
-2.01117
-2.12783
-2.0976
-2.16767
-2.08899
-1.83909
-1.86005
-1.69782
-1.55042
-1.51301
-1.55669
-1.51501
-1.4695
-1.40091
-1.36047
-1.26596
-1.13767
-0.969068
-0.827561
-1.1301
-1.14756
-1.20828
-1.19724
-1.27215
-1.19987
-1.11868
-1.05443
-1.06768
-0.971098
-0.942072
-0.786803
-0.894132
-0.801602
-0.856647
-0.746274
-0.757438
-0.640692
-0.604437
-0.540494
-0.350103
-0.369779
-0.382309
-0.476617
-0.448749
-0.37463
-0.328432
-0.307606
-0.337135
-0.279192
-0.32241
-0.319756
-0.242434
-0.319551
-0.270769
-0.316643
-0.232342
-0.253508
-0.213196
-0.215966
-6.58626
-7.10674
-7.42537
-7.55938
-7.59923
-7.47654
-7.22574
-6.95832
-6.56235
-6.29402
-6.0453
-5.85801
-5.8707
-5.63321
-5.53908
-5.1962
-4.8048
-4.34589
-3.65857
-3.06171
-5.57716
-5.97658
-6.26503
-6.40229
-6.46706
-6.27038
-6.13344
-5.83881
-5.59693
-5.3198
-5.17338
-5.02277
-4.83865
-4.75445
-4.6148
-4.4264
-4.06508
-3.59302
-3.11605
-2.48475
-4.65652
-4.88658
-5.19256
-5.29657
-5.32499
-5.2611
-4.99956
-4.78995
-4.62862
-4.37895
-4.23341
-4.13951
-3.98869
-3.8725
-3.76714
-3.65937
-3.41155
-2.95549
-2.57655
-2.04643
-3.65373
-3.92911
-4.17748
-4.2885
-4.24881
-4.11147
-3.99735
-3.8513
-3.6654
-3.50078
-3.35955
-3.34924
-3.22117
-3.13741
-3.04749
-2.9071
-2.68319
-2.38225
-2.0373
-1.70458
-2.87563
-3.03797
-3.12983
-3.17381
-3.19683
-3.22306
-3.08709
-2.90415
-2.78696
-2.68332
-2.64371
-2.47189
-2.38581
-2.42943
-2.37593
-2.18983
-2.11155
-1.7938
-1.50243
-1.28958
-1.9881
-2.16579
-2.263
-2.23497
-2.28671
-2.24241
-2.23393
-2.10772
-1.95151
-1.89978
-1.81817
-1.8113
-1.69792
-1.69939
-1.64645
-1.56745
-1.50456
-1.26484
-1.04913
-0.86413
-1.1516
-1.27787
-1.34248
-1.35263
-1.33959
-1.35795
-1.37703
-1.22626
-1.18732
-1.18345
-1.04531
-1.12676
-0.987441
-1.0454
-0.971119
-0.923961
-0.897687
-0.700001
-0.666496
-0.586086
-0.371888
-0.45717
-0.422842
-0.431591
-0.50048
-0.444166
-0.375266
-0.460438
-0.367976
-0.411072
-0.297545
-0.329352
-0.32757
-0.336691
-0.382619
-0.303262
-0.338722
-0.264769
-0.184579
-0.169687
-6.76391
-7.26692
-7.62522
-7.94186
-7.98795
-7.93453
-7.87419
-7.4607
-7.20203
-6.94192
-6.77499
-6.57584
-6.44317
-6.17232
-5.88129
-5.60302
-5.22742
-4.53756
-3.86325
-3.10089
-5.68121
-6.08502
-6.42439
-6.61878
-6.7778
-6.7133
-6.61429
-6.38365
-6.08793
-5.92042
-5.70049
-5.49203
-5.40629
-5.24456
-4.99852
-4.73066
-4.31146
-3.85615
-3.23219
-2.59974
-4.66209
-4.9799
-5.36573
-5.48298
-5.5751
-5.47307
-5.44264
-5.24123
-5.03479
-4.87269
-4.67237
-4.55245
-4.41145
-4.31339
-4.11996
-3.88876
-3.61842
-3.16521
-2.70642
-2.21798
-3.6725
-3.95517
-4.2784
-4.43146
-4.45647
-4.4241
-4.32123
-4.22628
-4.04042
-3.88606
-3.75837
-3.68082
-3.58735
-3.4125
-3.3885
-3.1417
-2.86252
-2.61056
-2.04983
-1.76703
-2.86097
-3.04588
-3.27054
-3.33667
-3.40474
-3.38691
-3.2851
-3.19632
-3.11311
-2.98036
-2.87603
-2.74476
-2.72629
-2.6559
-2.52594
-2.37831
-2.23506
-1.96509
-1.65644
-1.33016
-1.94217
-2.1457
-2.25766
-2.341
-2.3932
-2.35547
-2.34201
-2.23373
-2.18263
-2.06507
-2.0563
-1.99183
-1.89171
-1.91726
-1.78856
-1.72792
-1.58467
-1.30764
-1.06318
-0.91576
-1.18973
-1.29398
-1.28931
-1.44798
-1.43664
-1.47258
-1.36684
-1.30649
-1.29992
-1.22303
-1.23095
-1.15203
-1.1339
-1.07579
-1.11334
-0.979652
-0.933565
-0.7433
-0.634734
-0.585836
-0.390467
-0.383449
-0.463026
-0.473158
-0.411648
-0.521097
-0.42655
-0.506863
-0.429597
-0.428514
-0.399351
-0.474026
-0.454656
-0.350448
-0.357144
-0.388655
-0.34626
-0.296906
-0.152966
-0.195313
-6.54063
-7.13786
-7.68594
-7.94763
-8.11159
-8.1688
-8.04832
-7.8761
-7.61219
-7.39859
-7.21008
-6.90772
-6.68163
-6.5474
-6.11669
-5.73398
-5.21839
-4.56777
-3.72706
-2.95092
-5.47475
-5.96686
-6.42279
-6.81303
-6.85938
-6.91712
-6.80642
-6.641
-6.41061
-6.23017
-6.02738
-5.77678
-5.667
-5.45285
-5.17074
-4.85984
-4.36613
-3.76344
-3.20598
-2.41807
-4.5256
-4.96719
-5.30577
-5.55814
-5.72098
-5.74689
-5.63196
-5.55113
-5.29289
-5.16393
-5.03612
-4.77467
-4.68786
-4.48514
-4.33446
-3.98302
-3.59668
-3.16358
-2.54605
-2.00991
-3.61942
-3.94787
-4.21441
-4.47863
-4.51608
-4.56878
-4.45488
-4.35565
-4.2601
-4.07421
-4.02317
-3.84557
-3.72685
-3.61871
-3.5005
-3.18229
-2.87668
-2.51515
-2.00649
-1.62364
-2.85017
-2.99142
-3.29156
-3.39641
-3.51947
-3.53195
-3.41388
-3.31746
-3.314
-3.14651
-3.01186
-2.8697
-2.88111
-2.71942
-2.64306
-2.46732
-2.25725
-1.85194
-1.50606
-1.24101
-1.96136
-2.05203
-2.26778
-2.36257
-2.42591
-2.44478
-2.3801
-2.38751
-2.29031
-2.21449
-2.13836
-2.04962
-1.9487
-1.9138
-1.89761
-1.74638
-1.50811
-1.34114
-1.10828
-0.842079
-1.14719
-1.27015
-1.39873
-1.41347
-1.46216
-1.48401
-1.448
-1.46102
-1.33016
-1.38042
-1.25835
-1.25609
-1.20702
-1.17903
-1.04579
-0.999912
-0.864322
-0.842846
-0.640309
-0.475695
-0.380324
-0.400833
-0.463876
-0.459969
-0.542844
-0.438061
-0.564793
-0.454951
-0.460697
-0.478339
-0.413328
-0.352096
-0.365773
-0.388064
-0.359667
-0.305809
-0.274989
-0.214146
-0.198545
-0.197455
-6.16455
-6.68602
-7.40638
-7.7975
-8.00852
-8.10073
-8.11378
-7.9721
-7.80369
-7.52922
-7.25292
-7.1397
-6.86445
-6.47708
-6.16541
-5.65482
-5.02129
-4.29757
-3.33228
-2.56254
-5.24675
-5.71234
-6.11828
-6.57598
-6.78336
-6.87568
-6.86236
-6.6927
-6.56215
-6.31675
-6.10397
-5.92646
-5.75712
-5.48647
-5.16791
-4.79608
-4.18301
-3.56672
-2.81696
-2.17247
-4.28639
-4.67486
-5.09822
-5.44098
-5.59354
-5.73898
-5.61317
-5.44009
-5.42553
-5.23118
-5.10956
-4.98269
-4.7491
-4.49946
-4.22022
-3.86858
-3.44762
-2.9549
-2.33364
-1.77238
-3.41509
-3.74321
-4.08352
-4.33557
-4.51136
-4.52454
-4.51246
-4.42583
-4.29831
-4.22025
-4.07441
-3.96101
-3.79328
-3.63506
-3.39795
-3.16369
-2.76612
-2.35329
-1.82422
-1.41054
-2.58891
-2.82521
-3.11276
-3.23672
-3.42195
-3.49425
-3.52968
-3.41228
-3.41365
-3.25741
-3.07266
-3.01334
-2.90555
-2.77923
-2.6395
-2.38572
-2.18421
-1.7633
-1.41834
-1.10648
-1.79601
-1.99554
-2.15475
-2.37016
-2.43753
-2.43049
-2.40114
-2.42649
-2.33082
-2.30826
-2.22825
-2.09734
-2.02145
-1.90746
-1.86578
-1.6817
-1.5372
-1.27623
-1.00992
-0.756593
-1.0367
-1.12779
-1.30772
-1.4027
-1.43309
-1.46413
-1.44213
-1.47683
-1.40477
-1.33339
-1.3194
-1.25218
-1.25795
-1.18694
-1.09072
-0.988761
-0.872196
-0.739133
-0.516605
-0.472815
-0.372919
-0.408298
-0.45646
-0.441887
-0.455902
-0.436673
-0.481207
-0.430148
-0.48161
-0.5377
-0.431574
-0.458783
-0.384213
-0.306355
-0.35833
-0.362504
-0.252604
-0.245217
-0.183264
-0.168107
-5.50393
-6.14576
-6.85764
-7.26836
-7.55646
-7.78198
-7.75764
-7.75794
-7.59314
-7.4311
-7.24713
-6.9487
-6.61466
-6.25743
-5.82616
-5.26177
-4.55912
-3.81027
-2.84483
-1.9045
-4.58803
-5.12706
-5.73153
-6.15
-6.41607
-6.57723
-6.5322
-6.6136
-6.39764
-6.27031
-6.06974
-5.7978
-5.57067
-5.21007
-4.96781
-4.42636
-3.80033
-3.1766
-2.35266
-1.63107
-3.77641
-4.26286
-4.69019
-5.02777
-5.31334
-5.40956
-5.40463
-5.40091
-5.25858
-5.13498
-4.98625
-4.83241
-4.63589
-4.32171
-4.04436
-3.66167
-3.1014
-2.58049
-1.86576
-1.31005
-3.00522
-3.28593
-3.72924
-3.99446
-4.20866
-4.32271
-4.32343
-4.41225
-4.27162
-4.1498
-4.0012
-3.8422
-3.71163
-3.46513
-3.17676
-2.94181
-2.45841
-1.93648
-1.50916
-1.00473
-2.27149
-2.60995
-2.85837
-3.04405
-3.27993
-3.3287
-3.30383
-3.28603
-3.27423
-3.24239
-3.01623
-2.99196
-2.84553
-2.64059
-2.47331
-2.25148
-1.85111
-1.6284
-1.13096
-0.789767
-1.5398
-1.82662
-2.07584
-2.17303
-2.31291
-2.36362
-2.27777
-2.32471
-2.3
-2.21941
-2.1712
-2.11027
-1.92538
-1.87719
-1.70593
-1.5489
-1.39843
-1.05733
-0.794905
-0.54919
-0.945987
-1.05138
-1.17799
-1.3122
-1.36997
-1.37461
-1.36001
-1.37662
-1.34832
-1.2631
-1.29778
-1.20203
-1.19089
-1.1789
-1.02959
-0.842184
-0.767717
-0.677596
-0.41762
-0.319866
-0.307263
-0.358185
-0.390249
-0.344691
-0.475028
-0.470733
-0.520684
-0.47486
-0.450962
-0.452081
-0.447781
-0.399546
-0.33155
-0.358059
-0.279174
-0.302446
-0.260764
-0.172793
-0.155244
-0.113361
-4.53385
-5.21916
-5.99803
-6.57275
-6.95274
-7.11474
-7.31452
-7.23957
-7.1726
-6.98648
-6.76305
-6.52241
-6.18712
-5.75066
-5.25353
-4.54364
-3.80634
-2.98661
-1.95314
-1.04208
-3.78595
-4.42078
-5.01733
-5.48736
-5.85744
-5.98389
-6.07395
-6.04919
-6.07776
-5.87023
-5.63735
-5.5159
-5.17266
-4.78542
-4.43332
-3.81081
-3.22467
-2.44314
-1.55977
-0.789821
-3.09327
-3.55639
-4.11964
-4.53077
-4.77907
-4.92731
-5.103
-5.05128
-4.93699
-4.80674
-4.71821
-4.50568
-4.21088
-3.96339
-3.55187
-3.13564
-2.64021
-1.98281
-1.2469
-0.57318
-2.41619
-2.82807
-3.25408
-3.57496
-3.84595
-4.05113
-3.98569
-3.9866
-4.02592
-3.85472
-3.75258
-3.59543
-3.36026
-3.19946
-2.91327
-2.45406
-2.09584
-1.5918
-0.973436
-0.400881
-1.81566
-2.07697
-2.42886
-2.7613
-2.86613
-3.02719
-3.07207
-3.13362
-3.06539
-2.95056
-2.83285
-2.76291
-2.5672
-2.3897
-2.21303
-1.88478
-1.56603
-1.17378
-0.749954
-0.383188
-1.28236
-1.50389
-1.74069
-1.93578
-2.02466
-2.18573
-2.16536
-2.18088
-2.16007
-2.07277
-2.03579
-1.97311
-1.77722
-1.67388
-1.50669
-1.3392
-1.05886
-0.835142
-0.440377
-0.275967
-0.793116
-0.914521
-1.03098
-1.17002
-1.20361
-1.27018
-1.23518
-1.35358
-1.26562
-1.23488
-1.16138
-1.14333
-1.10251
-0.970299
-0.88002
-0.832541
-0.644459
-0.440187
-0.296097
-0.130832
-0.24475
-0.315243
-0.30233
-0.371436
-0.370199
-0.447242
-0.454033
-0.407166
-0.424118
-0.397982
-0.429729
-0.423088
-0.409916
-0.300616
-0.261164
-0.221556
-0.21451
-0.197355
-0.0814977
-0.115536
-3.33532
-4.05379
-4.92253
-5.50593
-5.98203
-6.39487
-6.51936
-6.52334
-6.43582
-6.31547
-6.07581
-5.68218
-5.35006
-4.85918
-4.35997
-3.68252
-2.78917
-1.88412
-0.828272
0.217764
-2.76338
-3.41787
-4.02605
-4.53233
-5.0021
-5.24146
-5.48937
-5.5364
-5.40892
-5.31811
-5.04566
-4.85893
-4.49999
-4.1299
-3.67292
-3.04904
-2.37454
-1.49158
-0.624892
0.177368
-2.1629
-2.68643
-3.30744
-3.78613
-4.10779
-4.36601
-4.46216
-4.52222
-4.45149
-4.34668
-4.17037
-3.91187
-3.6806
-3.38148
-2.99469
-2.49718
-1.80091
-1.12397
-0.432072
0.245138
-1.64589
-2.20488
-2.6049
-3.00844
-3.28096
-3.48971
-3.47019
-3.55871
-3.50143
-3.496
-3.28007
-3.1318
-2.9005
-2.66221
-2.30426
-1.89108
-1.48827
-0.83247
-0.319572
0.244539
-1.19435
-1.6011
-1.96633
-2.18959
-2.41607
-2.61168
-2.71691
-2.70679
-2.66414
-2.59396
-2.46632
-2.37972
-2.16283
-2.00784
-1.78697
-1.41574
-1.1146
-0.659195
-0.210052
0.182555
-0.900328
-1.13034
-1.35045
-1.55344
-1.70203
-1.75353
-1.89042
-1.96203
-1.90948
-1.94313
-1.79325
-1.62695
-1.56965
-1.41985
-1.25867
-0.981179
-0.77589
-0.458069
-0.174975
0.135565
-0.535216
-0.661326
-0.764773
-0.885239
-1.11091
-1.10132
-1.11194
-1.12129
-1.11873
-1.12828
-1.01853
-0.978853
-0.877252
-0.777817
-0.701951
-0.601642
-0.390099
-0.271706
0.02313
0.135528
-0.177181
-0.18634
-0.295129
-0.305142
-0.313451
-0.360458
-0.385793
-0.415245
-0.432818
-0.42729
-0.401889
-0.309535
-0.344038
-0.22687
-0.240887
-0.185142
-0.21871
-0.150395
-0.00587115
-0.0139618
-1.80395
-2.59935
-3.49909
-4.30532
-4.76639
-5.02309
-5.34489
-5.46304
-5.38139
-5.2725
-4.97034
-4.70464
-4.26114
-3.81426
-3.18851
-2.4524
-1.54722
-0.510928
0.593893
1.67847
-1.45654
-2.08553
-2.81645
-3.34371
-3.84392
-4.22176
-4.45461
-4.42472
-4.49866
-4.37069
-4.17336
-3.90812
-3.61562
-3.10484
-2.5585
-1.93757
-1.17088
-0.393927
0.614432
1.47278
-1.17315
-1.68939
-2.27253
-2.78266
-3.21386
-3.40803
-3.64107
-3.6872
-3.66574
-3.54254
-3.40735
-3.18466
-2.87504
-2.53653
-2.18766
-1.54332
-0.903003
-0.23521
0.582191
1.31596
-0.834251
-1.27356
-1.74348
-2.15156
-2.44385
-2.67122
-2.85814
-2.86714
-2.85564
-2.81776
-2.67099
-2.493
-2.26531
-2.01258
-1.63139
-1.20607
-0.696062
-0.106228
0.519438
1.12814
-0.505097
-0.934256
-1.26683
-1.60972
-1.8827
-2.00192
-2.15689
-2.27946
-2.18529
-2.11164
-2.05669
-1.8892
-1.76045
-1.54072
-1.23325
-0.899132
-0.518797
-0.118105
0.485859
0.839741
-0.291417
-0.552929
-0.90036
-1.12155
-1.27333
-1.45358
-1.46793
-1.454
-1.55447
-1.50222
-1.41923
-1.31477
-1.21346
-0.999065
-0.849747
-0.5725
-0.336929
0.00837707
0.319403
0.657224
-0.191548
-0.409331
-0.489305
-0.74361
-0.716318
-0.819773
-0.904367
-0.911829
-0.920403
-0.827165
-0.84726
-0.772179
-0.714793
-0.601496
-0.544736
-0.29837
-0.150292
0.00431039
0.16506
0.379542
-0.0923452
-0.168631
-0.177062
-0.178651
-0.336735
-0.335168
-0.241809
-0.319771
-0.279268
-0.270534
-0.289345
-0.248398
-0.206304
-0.137791
-0.168
-0.0881651
-0.0240057
0.0474247
0.135801
0.15264
0.0248507
-0.950075
-1.85048
-2.59938
-3.15245
-3.61334
-3.86744
-4.0243
-3.97122
-3.83707
-3.6391
-3.36315
-2.92213
-2.39289
-1.72822
-0.871847
0.0994719
1.22326
2.3265
3.38292
0.196171
-0.549276
-1.42098
-2.0725
-2.549
-2.91122
-3.16517
-3.24075
-3.28674
-3.15545
-3.07507
-2.7822
-2.3535
-1.89279
-1.31357
-0.714467
0.103049
1.0354
2.05923
3.04614
0.272468
-0.345768
-1.04178
-1.59297
-1.99741
-2.40436
-2.52311
-2.64215
-2.68123
-2.58539
-2.35576
-2.2056
-1.83114
-1.44996
-0.984489
-0.458703
0.22734
1.07142
1.89951
2.56619
0.335929
-0.170408
-0.711755
-1.17622
-1.54895
-1.75167
-1.95182
-2.02666
-2.08756
-2.00149
-1.85634
-1.71949
-1.44987
-1.10216
-0.76311
-0.283986
0.281277
0.894676
1.62441
2.21146
0.302565
-0.119028
-0.482331
-0.866265
-1.15989
-1.35888
-1.45384
-1.51438
-1.53153
-1.46924
-1.41598
-1.24641
-1.09587
-0.844549
-0.564411
-0.166381
0.241851
0.703388
1.25723
1.66743
0.260496
-0.0514737
-0.355536
-0.610771
-0.785203
-0.90088
-0.988741
-1.12662
-1.02146
-1.07823
-1.01613
-0.929061
-0.729968
-0.603392
-0.311249
-0.110617
0.210685
0.521892
0.916209
1.22853
0.17504
-0.0137062
-0.166752
-0.362491
-0.462675
-0.553821
-0.591121
-0.644812
-0.566853
-0.633085
-0.561724
-0.525766
-0.476765
-0.331978
-0.210185
-0.0767453
0.078515
0.362806
0.53169
0.757665
0.0591896
0.0178376
-0.0651683
-0.0429067
-0.101647
-0.213892
-0.248445
-0.240441
-0.302069
-0.230762
-0.183145
-0.155118
-0.2274
-0.0606807
-0.0282924
-0.0679116
0.00900111
0.169023
0.175256
0.186686
2.08427
1.09907
0.095722
-0.71846
-1.25666
-1.7716
-2.10153
-2.26797
-2.29929
-2.20952
-1.96202
-1.65305
-1.19985
-0.68697
0.0395278
0.886446
1.87935
3.04347
4.26065
5.40672
1.93336
1.09078
0.376481
-0.418057
-0.938392
-1.38697
-1.70713
-1.81079
-1.87647
-1.80965
-1.53922
-1.28644
-0.910383
-0.412204
0.213488
0.933372
1.75239
2.76824
3.81764
4.7862
1.71806
1.12686
0.404008
-0.244938
-0.722066
-1.00463
-1.29554
-1.41618
-1.41868
-1.32058
-1.24958
-0.935027
-0.622175
-0.163306
0.324953
0.934785
1.59573
2.37944
3.27461
4.13406
1.49683
1.01876
0.462944
-0.0828617
-0.454233
-0.757167
-0.925185
-1.00319
-1.06262
-1.02318
-0.925399
-0.712638
-0.503942
-0.165216
0.340977
0.793036
1.34202
2.06874
2.7897
3.38937
1.20874
0.801105
0.359251
0.0582373
-0.226264
-0.497131
-0.603411
-0.696644
-0.7668
-0.767743
-0.586425
-0.477226
-0.303138
-0.082262
0.231908
0.737673
1.1094
1.65499
2.14949
2.63195
0.951143
0.70252
0.268715
-0.061174
-0.117073
-0.27491
-0.438885
-0.511955
-0.53039
-0.484363
-0.402763
-0.282884
-0.211027
-0.067448
0.235053
0.496729
0.832674
1.21863
1.56561
1.85386
0.500393
0.390616
0.174472
0.0554182
-0.0936399
-0.227328
-0.244308
-0.250137
-0.30205
-0.287386
-0.236856
-0.233078
-0.166564
0.00111979
0.170493
0.292547
0.513721
0.724504
0.933753
1.14372
0.202326
0.195902
0.0740957
-0.0443961
-0.0370682
-0.078643
-0.0548214
-0.105249
-0.0554596
-0.0260873
-0.143434
-0.0813368
0.0175605
-0.0492286
0.0440771
0.15583
0.139548
0.278044
0.297504
0.384917
4.37191
3.36607
2.35669
1.48803
0.809066
0.294755
-0.108604
-0.24909
-0.311414
-0.20605
-0.0334165
0.267358
0.814571
1.3864
2.14478
3.03021
4.01703
5.28785
6.44885
7.65383
3.95004
3.04429
2.31126
1.49375
0.915032
0.364491
0.100912
-0.0584004
-0.138487
-0.0200414
0.0612103
0.42485
0.810838
1.42942
1.94859
2.72055
3.62755
4.69646
5.6931
6.70221
3.41431
2.75941
2.09386
1.44013
0.819022
0.47255
0.2301
0.0699816
-0.0190217
0.115213
0.255126
0.533192
0.787101
1.28106
1.81052
2.39501
3.18849
3.96602
4.82053
5.71217
2.9261
2.41315
1.68862
1.22714
0.855948
0.557474
0.292429
0.14961
0.0859605
0.060097
0.236791
0.502136
0.697283
1.06165
1.54551
1.95518
2.63728
3.3677
4.11079
4.75019
2.3092
1.85236
1.39645
1.01183
0.617075
0.447437
0.243265
0.184626
0.163686
0.210935
0.290682
0.450892
0.557789
0.895633
1.2312
1.60584
2.09442
2.61397
3.17976
3.74099
1.63997
1.44752
1.01989
0.732907
0.52419
0.291064
0.215577
0.186677
0.0961151
0.151528
0.251126
0.332028
0.493188
0.743656
0.949587
1.18236
1.50057
1.95298
2.26531
2.59593
0.983775
0.876626
0.659954
0.400018
0.31775
0.173576
0.191847
0.195015
0.00577436
0.178945
0.116112
0.222319
0.26147
0.363449
0.566704
0.767357
0.944239
1.13072
1.42542
1.63066
0.331542
0.316601
0.244867
0.185217
0.156174
0.156707
0.0144183
-0.0499425
-0.0178293
0.0110895
0.0360563
0.0444677
0.122294
0.148251
0.21942
0.235679
0.363254
0.400081
0.501727
0.590217
6.8401
5.82169
4.75643
3.85508
3.11271
2.55497
2.13864
1.94452
1.84567
1.95483
2.15903
2.51403
2.98854
3.65095
4.36554
5.29412
6.41464
7.58554
8.89346
10.1399
6.02016
5.19563
4.32207
3.52815
2.87521
2.33993
1.96889
1.79933
1.76828
1.79218
2.04393
2.32052
2.71434
3.22968
3.92794
4.68748
5.60949
6.68234
7.73335
8.785
5.23665
4.55361
3.78819
3.10188
2.5568
2.10608
1.7969
1.65786
1.6037
1.62565
1.75516
2.04358
2.34416
2.84564
3.35549
4.04133
4.8175
5.72267
6.53807
7.47834
4.27436
3.73837
3.1404
2.64108
2.16256
1.86469
1.58574
1.43017
1.42632
1.39756
1.58118
1.74022
1.99934
2.33631
2.81753
3.44092
4.00508
4.68771
5.46164
6.13501
3.37327
2.94948
2.58162
2.07502
1.73326
1.49647
1.26607
1.18952
1.09087
1.14738
1.27637
1.38035
1.57802
1.90188
2.24055
2.74295
3.09237
3.66816
4.2512
4.81102
2.54482
2.20783
1.79474
1.50351
1.29229
1.11254
0.954108
0.802122
0.844373
0.885126
0.949919
0.966758
1.1296
1.3899
1.66256
1.99081
2.24006
2.64586
2.99336
3.44346
1.53744
1.34918
1.06458
0.94992
0.793167
0.655322
0.539595
0.479287
0.500671
0.52909
0.566701
0.673293
0.758462
0.835372
1.01485
1.17082
1.40724
1.5714
1.76851
2.08907
0.584118
0.506175
0.426904
0.307284
0.288624
0.24198
0.193004
0.153597
0.146687
0.21931
0.147278
0.255942
0.269315
0.275998
0.315877
0.3568
0.446706
0.567536
0.682576
0.667439
9.40115
8.35339
7.26898
6.27659
5.41365
4.85657
4.46704
4.1923
4.19807
4.13918
4.35889
4.72592
5.2595
5.89566
6.72068
7.60253
8.71474
9.95684
11.3155
12.4591
8.15647
7.21253
6.35155
5.5618
4.87128
4.29205
3.98966
3.74196
3.66437
3.75655
3.88225
4.22296
4.54746
5.19158
5.88361
6.689
7.57265
8.72949
9.86093
10.8295
7.03093
6.29829
5.45721
4.81282
4.19659
3.72038
3.44046
3.20255
3.14943
3.20778
3.429
3.67551
3.99681
4.42793
5.04907
5.63623
6.41732
7.36703
8.30388
9.11621
5.65588
5.11944
4.52913
3.99396
3.5496
3.15849
2.88097
2.68284
2.70439
2.70327
2.85208
3.06951
3.33032
3.66531
4.1816
4.6902
5.31368
6.08238
6.8328
7.51447
4.52757
4.015
3.52155
3.13438
2.77316
2.47572
2.27442
2.1924
2.09984
2.09292
2.21935
2.3747
2.56504
2.90382
3.31514
3.67726
4.15882
4.67306
5.27049
5.85908
3.22104
2.91864
2.55161
2.27298
2.0205
1.80202
1.61702
1.55662
1.57711
1.51603
1.65499
1.70212
1.9151
2.00902
2.31441
2.64951
2.97003
3.3576
3.7252
4.12275
1.91817
1.7531
1.58511
1.38604
1.23461
1.08256
1.00319
0.93893
0.939383
1.01141
0.997329
1.00227
1.14911
1.20329
1.3857
1.58178
1.82757
2.03428
2.2534
2.50504
0.691172
0.62542
0.521007
0.431882
0.440755
0.356917
0.303592
0.355608
0.288266
0.263973
0.303636
0.401375
0.352847
0.431849
0.517488
0.542671
0.532646
0.664768
0.854736
0.798948
11.3896
10.2851
9.22075
8.26291
7.38629
6.87145
6.36381
6.11381
5.97473
6.0424
6.21098
6.59738
7.14786
7.75055
8.52853
9.6065
10.6602
11.8671
13.307
14.5475
9.86022
8.88794
7.91672
7.09927
6.45155
5.95512
5.49007
5.25491
5.17053
5.20682
5.3635
5.71345
6.13822
6.7015
7.43142
8.16275
9.19624
10.2062
11.4189
12.5219
8.3243
7.58672
6.71818
6.01316
5.48336
4.99224
4.70033
4.50763
4.33311
4.34618
4.57251
4.78134
5.17332
5.64645
6.25366
6.98947
7.76837
8.59695
9.58081
10.4893
6.82482
6.19883
5.52713
4.98857
4.46947
4.13008
3.92921
3.62674
3.54292
3.57545
3.73937
3.87742
4.23955
4.59723
5.08701
5.6765
6.23794
7.08808
7.78518
8.54396
5.26575
4.84674
4.30788
3.99613
3.49928
3.20765
2.98034
2.8783
2.85252
2.87163
2.96921
3.03285
3.31791
3.60165
3.97327
4.36994
4.8619
5.5353
6.10012
6.60793
3.71381
3.43941
3.09566
2.82557
2.49625
2.33484
2.19768
2.03809
2.00912
2.03741
2.12551
2.25351
2.32313
2.54761
2.79329
3.11609
3.49683
3.87054
4.33601
4.67928
2.22522
2.02039
1.88413
1.64892
1.49939
1.42991
1.34916
1.16751
1.22033
1.26235
1.25115
1.35601
1.45546
1.58328
1.73104
1.92315
2.12943
2.32861
2.6089
2.82765
0.745515
0.714583
0.631243
0.475342
0.502498
0.509763
0.517561
0.426949
0.441217
0.453579
0.480743
0.460594
0.511711
0.503864
0.568591
0.626635
0.760971
0.749896
0.907526
0.949849
)
;

boundaryField
{
    hotSide
    {
        type            calculated;
        value           nonuniform List<scalar> 
400
(
-1.25491
-2.03912
-2.98841
-3.83096
-4.54613
-5.14341
-5.40883
-5.57368
-5.33518
-4.9413
-4.26013
-3.26659
-2.04153
-0.480451
1.38137
3.4772
5.80475