/*--------------------------------*- C++ -*----------------------------------*\
| =========                 |                                                 |
| \\      /  F ield         | OpenFOAM: The Open Source CFD Toolbox           |
|  \\    /   O peration     | Version:  2212                                  |
|   \\  /    A nd           | Website:  www.openfoam.com                      |
|    \\/     M anipulation  |                                                 |
\*---------------------------------------------------------------------------*/
FoamFile
{
    version     2.0;
    format      ascii;
    arch        "LSB;label=32;scalar=64";
    class       volScalarField;
    location    "0";
    object      relativeErrorField;
}
// * * * * * * * * * * * * * * * * * * * * * * * * * * * * * * * * * * * * * //

dimensions      [0 0 0 1 0 0 0];

internalField   nonuniform List<scalar> 
3200
(
0.00689943
0.00733652
0.0073981
0.00675483
0.00598445
0.00455716
0.00271025
0.00126498
0.000270853
0.0011813
0.00179193
0.00203662
0.00190561
0.0016945
0.000932412
0.000872126
0.000995782
0.00147085
0.0021072
0.00332896
0.00581451
0.00601437
0.00614205
0.00569827
0.00487545
0.00368427
0.00254548
0.00111015
0.000220262
0.00126673
0.00167931
0.00193129
0.00163626
0.0014278
0.000981383
0.000818034
0.000808491
0.00135294
0.00194397
0.0031219
0.00480474
0.00516857
0.00517687
0.00500311
0.00404244
0.00302093
0.00199566
0.000934994
0.000350481
0.00117821
0.00170312
0.00174826
0.00173249
0.00132971
0.000935118
0.00074411
0.000908332
0.00145429
0.00155239
0.00257393
0.00379426
0.00399704
0.00434787
0.00385016
0.00342009
0.00257952
0.00157789
0.000631193
0.000490877
0.000836826
0.00136371
0.00172639
0.00140997
0.00110397
0.000961876
0.00061983
0.000698646
0.000889248
0.00150294
0.00216495
0.00287515
0.00318441
0.0029771
0.00326161
0.00272213
0.00195621
0.00119439
0.000195275
0.000370899
0.000786167
0.00127899
0.00134575
0.00101985
0.00104503
0.000749529
0.000500884
0.000532398
0.00085135
0.00121294
0.00162176
0.002119
0.00216239
0.00232743
0.00230155
0.00193223
0.00143074
0.000844031
0.0002184
0.000542395
0.00069781
0.000999371
0.00105321
0.000964167
0.00093094
0.000544099
0.000446607
0.000299927
0.00071326
0.000913527
0.00119121
0.00144634
0.00116619
0.00142948
0.00142858
0.00111107
0.000806352
0.000631601
5.43844e-05
0.000118028
0.000584092
0.000605301
0.00052988
0.000708265
0.000668651
0.000324316
0.000269702
0.00010512
0.000266902
0.000691718
0.000610838
0.000535692
0.000467992
0.00048363
0.000384342
0.000385272
0.00021304
2.85986e-05
0.000246726
5.64652e-05
0.000199151
0.000121611
0.000218243
0.000409747
0.000144455
3.74926e-05
0.000163468
0.000139605
0.000106141
0.000359245
6.57332e-05
0.00915712
0.00973343
0.00982306
0.00952448
0.00852393
0.00738712
0.00601238
0.00431336
0.00268016
0.00164619
0.00101348
0.000834472
0.00110307
0.00112406
0.00172823
0.00176342
0.00164667
0.00122438
0.00018942
0.00106061
0.00751339
0.00810706
0.0082297
0.00800171
0.00718222
0.00604993
0.00466182
0.00348951
0.00215889
0.00120978
0.000617529
0.000693325
0.000769252
0.000911289
0.00088693
0.00129345
0.00119464
0.000833129
7.6168e-05
0.00104
0.0061638
0.00675324
0.00701551
0.00671257
0.00585785
0.00505605
0.00392052
0.00250433
0.00171098
0.000565803
0.00039088
5.38444e-05
0.000472037
0.000407758
0.000765233
0.001044
0.000890752
0.000577513
0.000199421
0.000856574
0.00526504
0.00562491
0.00545117
0.0051236
0.00468545
0.00384857
0.00295576
0.0019214
0.00114855
0.000430953
0.000129878
5.03772e-05
0.000154523
0.000431938
0.000727743
0.000678552
0.00065009
0.000296991
0.000124823
0.000841275
0.00412328
0.00443874
0.00420186
0.00402847
0.00360999
0.002945
0.00237999
0.00165332
0.000817674
0.000340534
3.20997e-05
2.94972e-05
7.04011e-05
0.00022156
0.000302115
0.000690235
0.00039348
0.000313753
0.000285689
0.000799459
0.00292899
0.00297369
0.00302982
0.00288503
0.00267395
0.00200936
0.0016692
0.00108957
0.000765099
0.000126818
0.000116843
1.9862e-06
0.000120253
0.000188656
0.000141222
0.000302405
0.000386723
1.41443e-05
0.000179003
0.000693043
0.00177064
0.00185668
0.00178748
0.00163439
0.00145135
0.00127836
0.00127775
0.000711735
0.000165703
0.000338939
2.94149e-05
4.64622e-05
1.04888e-05
0.000101618
0.000275228
0.000174652
0.000143506
6.55583e-05
0.00013761
0.000272683
0.000481904
0.000597896
0.0006039
0.000695376
0.000563482
0.000407557
0.000363677
9.40155e-05
0.000150136
0.000132427
3.57387e-05
1.66041e-05
0.000162826
0.000192423
2.78229e-05
6.51026e-05
0.000130706
0.000139964
0.000145598
6.65104e-05
0.0118871
0.0126105
0.0131046
0.0124897
0.0116622
0.010632
0.00918103
0.00767144
0.00644899
0.00539139
0.00474112
0.00439976
0.00463384
0.00468467
0.00483014
0.0049059
0.00468433
0.00405526
0.00311227
0.00169031
0.0102102
0.010629
0.0108629
0.0106281
0.00998377
0.00901743
0.00766949
0.00656016
0.00516444
0.00427764
0.0036777
0.00337534
0.00365748
0.00384658
0.00396912
0.00412876
0.00407972
0.00339158
0.0023438
0.00133112
0.00836258
0.00877162
0.00911281
0.00897481
0.0082868
0.00740788
0.00644007
0.00496554
0.00436602
0.0035207
0.00303438
0.00266372
0.00279534
0.00295266
0.00340326
0.00339057
0.00321737
0.00271473
0.00188655
0.00112999
0.00656918
0.00731567
0.00726873
0.00696175
0.00680606
0.00601961
0.00491122
0.00421397
0.00318291
0.00276645
0.0022775
0.002082
0.00234799
0.00242681
0.00252545
0.00279722
0.00260515
0.00205611
0.00124095
0.000627969
0.00515528
0.0056409
0.00547545
0.00548365
0.00519602
0.00446883
0.00402436
0.00319356
0.00253018
0.00208308
0.00172973
0.00157221
0.00165778
0.00194196
0.00210308
0.00187137
0.00202994
0.00135015
0.00115884
0.000521002
0.00378346
0.00409204
0.00408394
0.00393894
0.0035903
0.00341031
0.00280503
0.00217257
0.00169014
0.00134156
0.00124173
0.00122069
0.00122082
0.00127795
0.00132918
0.00133236
0.00120709
0.00106703
0.000661208
0.000346287
0.00233337
0.0022826
0.00261027
0.00240174
0.00216249
0.00222958
0.00169262
0.00111514
0.0010686
0.000944081
0.000770648
0.000710705
0.000638305
0.000764878
0.000767292
0.000917847
0.000782222
0.000515963
0.000546691
0.000109675
0.000978801
0.00076544
0.000915734
0.000883909
0.000821848
0.000757093
0.000563717
0.000414136
0.000432075
0.000195014
0.000225346
0.00027885
4.00453e-05
0.000272034
0.000275692
0.000508351
0.000161769
0.000240187
0.000127835
0.000127182
0.0143046
0.0152139
0.0157793
0.015638
0.0150746
0.014013
0.0126584
0.0112075
0.0100123
0.00895689
0.00835319
0.00794996
0.00783043
0.00813966
0.00823497
0.00825517
0.00777512
0.00679674
0.00549026
0.00419298
0.0122496
0.0130337
0.0133053
0.0131442
0.0129642
0.0117471
0.0107636
0.00956201
0.00834412
0.00759299
0.0069511
0.00679753
0.00699971
0.00687719
0.00692241
0.00682023
0.0063815
0.00572663
0.00467863
0.00366315
0.010264
0.0107994
0.0110368
0.0110814
0.0107037
0.00996799
0.00900182
0.00773496
0.00693692
0.00617991
0.00564711
0.00554415
0.00544021
0.00542397
0.0058527
0.00583576
0.00553882
0.00497967
0.00388464
0.00279446
0.00834864
0.00901979
0.00917446
0.00892094
0.00886153
0.00804353
0.00722068
0.00654873
0.00583905
0.00493906
0.00453805
0.00462333
0.00449123
0.0043912
0.00465434
0.0047398
0.004349
0.00386631
0.00296675
0.00223062
0.00638905
0.00693405
0.00703651
0.00696314
0.00665916
0.00609449
0.00555483
0.00497084
0.00442409
0.00381251
0.00344954
0.00324838
0.00338992
0.0034082
0.00357379
0.00352133
0.00347315
0.00300302
0.00222282
0.0017448
0.00466027
0.00485102
0.00502478
0.00487795
0.00499713
0.00434191
0.0039387
0.00353985
0.00293995
0.00274639
0.00237386
0.00266934
0.00240039
0.00251037
0.0023534
0.00264014
0.00259407
0.00211894
0.00167424
0.00132033
0.0026691
0.00304329
0.00304961
0.00294693
0.00297107
0.00270745
0.00240676
0.00232275
0.0019476
0.00148546
0.00141191
0.00146571
0.00163031
0.00139038
0.00145924
0.00139398
0.00143784
0.00144729
0.00103161
0.00115945
0.00110938
0.000972659
0.00109798
0.0009942
0.00102247
0.000801617
0.000746858
0.000677842
0.000607204
0.000611572
0.000690926
0.000384674
0.000477116
0.000529433
0.00036107
0.000542142
0.000457035
0.000536949
0.000500641
0.000109112
0.0163486
0.0174425
0.0179979
0.0181589
0.0175176
0.0170436
0.0158037
0.0147482
0.0132451
0.0125544
0.0116012
0.0112058
0.0111146
0.0111583
0.0112991
0.0108424
0.0101727
0.0092233
0.00785368
0.00633235
0.0142117
0.0147968
0.0155092
0.0155224
0.0150012
0.014522
0.0133466
0.0122671
0.0113925
0.0105291
0.0098493
0.00946216
0.0094294
0.00958099
0.00970137
0.00900583
0.00880753
0.00793873
0.00650905
0.00545505
0.0117227
0.0124305
0.0130474
0.0130818
0.0127481
0.0120981
0.0113679
0.0102045
0.00947498
0.00886168
0.00830839
0.00797661
0.00785597
0.00802442
0.00813412
0.00778104
0.00728779
0.00658885
0.005604
0.00430857
0.00949692
0.0101225
0.0104546
0.0106016
0.0103862
0.00991063
0.00928699
0.00840255
0.00768976
0.00713573
0.00669454
0.00633698
0.00649562
0.00638234
0.00651207
0.00620395
0.00584855
0.00534252
0.00446972
0.00344169
0.00754098
0.00801744
0.00813045
0.00825704
0.0082541
0.00766047
0.00703244
0.00659412
0.00590244
0.00536423
0.00520573
0.00506041
0.004972
0.00489028
0.00505152
0.00468491
0.00470527
0.00416566
0.00339675
0.00281727
0.00548833
0.00577214
0.00605544
0.00591063
0.00596352
0.00541075
0.0051928
0.00490791
0.00432505
0.00392363
0.00390458
0.00368039
0.0036267
0.00348519
0.00345326
0.00335226
0.00327382
0.00305067
0.00240126
0.00191772
0.00317751
0.00352679
0.0033929
0.00346012
0.00363405
0.00356282
0.00329299
0.00282005
0.00258715
0.00232979
0.00232226
0.00227571
0.00221977
0.00219986
0.00220539
0.00212557
0.00197231
0.00188043
0.001631
0.00108112
0.000959233
0.00130354
0.00164594
0.00106887
0.00106947
0.00103138
0.000986728
0.000839039
0.000813087
0.000763534
0.000703505
0.000737001
0.000852713
0.000709615
0.000851991
0.000708571
0.000785971
0.000602737
0.000413246
0.000417143
0.0180459
0.0192505
0.0200877
0.0202201
0.0201295
0.0193822
0.0183173
0.0171592
0.0162306
0.0152551
0.0144427
0.01422
0.0138508
0.0138176
0.013365
0.0130984
0.012346
0.0111602
0.00946508
0.00776303
0.0154127
0.0164523
0.0172674
0.0173477
0.0172511
0.0165707
0.0156951
0.01475
0.0139768
0.012991
0.0125391
0.0120836
0.012075
0.0119294
0.0115201
0.0112758
0.010518
0.0094141
0.00799149
0.00649703
0.0129249
0.0137505
0.0142116
0.0145748
0.0144311
0.0139299
0.0132613
0.0123527
0.0118322
0.0108987
0.0104947
0.0100487
0.0101449
0.00980699
0.00972168
0.00946401
0.00887706
0.0080156
0.00672627
0.00577024
0.0105426
0.0112711
0.0117185
0.0116922
0.0116325
0.0115258
0.0109204
0.0102488
0.00966922
0.00890218
0.00854242
0.0084936
0.00833046
0.0081375
0.00803062
0.00777621
0.00730126
0.00628544
0.00558496
0.00440895
0.00844314
0.00885114
0.00884013
0.00937159
0.00916909
0.00893537
0.00857294
0.00784822
0.00761918
0.00701727
0.00688753
0.0066044
0.00640148
0.00608738
0.00623285
0.00583507
0.00552016
0.00486689
0.00427122
0.00352692
0.00584488
0.0063485
0.00671089
0.00660924
0.00682339
0.00656955
0.00577869
0.00584039
0.00532823
0.00486433
0.00474698
0.00488533
0.00475699
0.00461739
0.00440565
0.00428249
0.00398886
0.00358808
0.00305899
0.002614
0.00364589
0.00370077
0.0038945
0.00385664
0.00409553
0.00386059
0.00359745
0.00338935
0.00343085
0.00311998
0.00302673
0.0025283
0.0028741
0.0025778
0.00275627
0.00240253
0.00243992
0.00206506
0.00194925
0.00174372
0.00115416
0.00121886
0.00125993
0.00157041
0.00147829
0.00123388
0.00108152
0.00101279
0.00110989
0.000919089
0.00106136
0.00105268
0.000798212
0.00105228
0.000891802
0.0010431
0.000765546
0.000835456
0.000702733
0.000711962
0.0187863
0.020234
0.0210928
0.0214208
0.0214803
0.021083
0.0203316
0.0195437
0.0184077
0.0176429
0.0169458
0.016432
0.016489
0.0158506
0.0156196
0.0146878
0.0136152
0.0123451
0.0104165
0.00873305
0.0162196
0.0173539
0.0181548
0.0185124
0.0186587
0.018053
0.0176249
0.0167515
0.0160391
0.0152357
0.0148164
0.0143937
0.013882
0.0136623
0.0132864
0.012771
0.0117543
0.0104119
0.00904793
0.0072262
0.0138128
0.014476
0.0153558
0.0156341
0.0156883
0.0154718
0.0146783
0.0140435
0.0135571
0.0128191
0.0123931
0.0121245
0.0116943
0.0113693
0.0110784
0.0107811
0.01007
0.00874021
0.00763277
0.00607043
0.0110594
0.0118799
0.0126127
0.0129276
0.0127877
0.0123555
0.011996
0.0115444
0.010978
0.0104804
0.0100576
0.0100311
0.00965554
0.00941531
0.00915815
0.00874959
0.00808846
0.0071925
0.00615988
0.00515952
0.00888546
0.00937907
0.00965164
0.00977511
0.00983365
0.00990231
0.00947414
0.00890457
0.00853961
0.00821921
0.00809789
0.0075742
0.00731525
0.00745582
0.00729965
0.00673606
0.00650343
0.00553164
0.00463842
0.00398471
0.00627378
0.00683031
0.00713093
0.00703623
0.00719251
0.00704692
0.00701465
0.00661394
0.00612079
0.00595704
0.00570115
0.00568102
0.00532798
0.00533616
0.00517407
0.0049302
0.00473673
0.00398563
0.00330866
0.00272691
0.0037131
0.00411867
0.00432472
0.004355
0.00431057
0.00436727
0.00442645
0.00394019
0.00381392
0.00380089
0.00335725
0.00361939
0.00317282
0.00336043
0.00312319
0.00297314
0.00289024
0.002255
0.00214817
0.00188972
0.00122573
0.00150662
0.00139325
0.00142181
0.00164843
0.00146268
0.00123557
0.00151579
0.00121128
0.00135306
0.000979386
0.00108414
0.00107838
0.00110856
0.00126
0.000998853
0.00111586
0.000872407
0.000608288
0.000559284
0.0192342
0.020629
0.0215993
0.0224445
0.0225223
0.0223219
0.0221075
0.0209117
0.0201625
0.0194221
0.018955
0.0184094
0.0180596
0.0173294
0.0165456
0.0157979
0.0147732
0.0128532
0.0109668
0.00881787
0.0164778
0.0176228
0.0185702
0.0190932
0.0195118
0.019288
0.0189697
0.0182813
0.0174159
0.0169273
0.0162985
0.0157112
0.0154823
0.0150414
0.0143613
0.0136185
0.0124373
0.0111465
0.00936071
0.0075403
0.0137974
0.0147193
0.0158338
0.0161513
0.0163936
0.0160662
0.0159523
0.0153424
0.0147246
0.0142437
0.0136582
0.013314
0.0129135
0.0126425
0.0120942
0.0114349
0.0106589
0.00934026
0.00799949
0.00656406
0.0110947
0.0119363
0.0128942
0.0133358
0.0133913
0.0132751
0.0129497
0.0126517
0.0120861
0.0116197
0.0112379
0.0110104
0.010739
0.0102265
0.0101676
0.00944048
0.00861434
0.00786766
0.00618616
0.00533824
0.00882665
0.00938948
0.0100711
0.0102628
0.0104598
0.0103933
0.0100706
0.0097901
0.00952945
0.00912018
0.00880093
0.00840192
0.00835043
0.00814173
0.00775125
0.00730651
0.00687449
0.00605118
0.00510628
0.0041038
0.00612202
0.00675958
0.00710668
0.00736276
0.00752045
0.00739577
0.00734801
0.00700395
0.00684069
0.00647074
0.00644327
0.00624268
0.00593152
0.00601535
0.00561577
0.00542988
0.00498399
0.00411619
0.00334931
0.00288661
0.00383341
0.00416782
0.00415078
0.00465916
0.00462022
0.0047334
0.0043915
0.00419599
0.00417375
0.00392631
0.00395173
0.0036989
0.0036417
0.00345638
0.00357868
0.00315054
0.00300392
0.00239296
0.00204443
0.00188761
0.00128667
0.00126339
0.00152532
0.00155842
0.00135558
0.0017157
0.00140419
0.00166835
0.0014139
0.00141027
0.00131429
0.00156013
0.00149651
0.00115366
0.00117589
0.00127986
0.00114046
0.000978079
0.000503992
0.000643593
0.0185342
0.0201937
0.0217003
0.0223908
0.0228035
0.022917
0.0225372
0.0220212
0.02126
0.0206516
0.0201255
0.0192925
0.0186815
0.0183343
0.01716
0.0161195
0.0147018
0.0128965
0.0105442
0.00836204
0.0158299
0.0172286
0.018512
0.0195994
0.0196951
0.0198247
0.0194755
0.0189764
0.0183003
0.0177763
0.0171976
0.0164909
0.0161933
0.0156024
0.0148195
0.0139539
0.0125603
0.0108471
0.00925689
0.00699173
0.0133577
0.0146437
0.0156178
0.0163338
0.0167847
0.0168341
0.0164741
0.0162187
0.0154512
0.0150682
0.0146952
0.0139384
0.0136965
0.0131195
0.0126968
0.0116857
0.0105696
0.00931218
0.00750599
0.00593243
0.01091
0.0118885
0.0126749
0.013451
0.0135448
0.0136848
0.0133279
0.0130182
0.0127238
0.0121641
0.0120117
0.0114856
0.0111389
0.0108263
0.010485
0.00954444
0.00863975
0.00756435
0.00604226
0.00489413
0.00877779
0.00920574
0.0101191
0.01043
0.0107961
0.0108231
0.0104514
0.0101483
0.0101321
0.00961717
0.00920564
0.00877368
0.0088135
0.00832533
0.00809921
0.00756862
0.00693179
0.00569333
0.00463472
0.00382199
0.00617452
0.00645639
0.00712994
0.00742201
0.00761489
0.00766827
0.00746024
0.00747921
0.00717178
0.00693289
0.00669454
0.0064181
0.00610457
0.00599866
0.00595202
0.00548187
0.00473772
0.00421655
0.00348702
0.00265093
0.00369342
0.0040879
0.00449968
0.00454488
0.00469911
0.0047671
0.00464946
0.0046896
0.00426852
0.00442922
0.00403755
0.0040308
0.0038743
0.00378579
0.00335938
0.00321354
0.00277914
0.00271142
0.0020608
0.00153152
0.0012529
0.00132031
0.00152773
0.00151461
0.00178721
0.00144199
0.00185889
0.00149719
0.00151597
0.00157395
0.00136004
0.00115861
0.00120372
0.00127723
0.00118394
0.00100682
0.000905499
0.000705271
0.00065399
0.000650474
0.0173992
0.0188424
0.0208331
0.0218895
0.0224372
0.0226526
0.0226506
0.0222241
0.021733
0.0209578
0.0201887
0.0198838
0.0191363
0.0180816
0.0172407
0.0158429
0.014096
0.0120885
0.00939099
0.00723267
0.0151176
0.0164375
0.0175763
0.0188578
0.0194182
0.0196496
0.0195821
0.0190744
0.0186859
0.0179788
0.0173732
0.0168757
0.016408
0.0156559
0.014769
0.0137294
0.0119955
0.0102463
0.00810593
0.00625959
0.0126135
0.0137413
0.0149643
0.015946
0.0163681
0.0167694
0.0163805
0.0158585
0.015804
0.0152318
0.0148777
0.014514
0.0138442
0.0131304
0.0123316
0.0113204
0.010104
0.00867319
0.00685951
0.00521555
0.0102682
0.0112444
0.0122521
0.0129917
0.0135012
0.0135243
0.0134735
0.0132031
0.0128145
0.0125776
0.0121429
0.0118089
0.0113161
0.0108538
0.0101568
0.00946803
0.0082888
0.00706074
0.00547988
0.00424109
0.00795722
0.00867727
0.00955136
0.00992164
0.0104788
0.0106899
0.0107889
0.0104227
0.0104216
0.00994198
0.00937811
0.0091995
0.0088749
0.00849509
0.00807499
0.00730563
0.00669536
0.00541062
0.00435623
0.00340084
0.00564571
0.00626969
0.00676522
0.00743602
0.00764173
0.00761428
0.00751756
0.00759297
0.0072909
0.00721894
0.00696869
0.00656057
0.00632552
0.00597192
0.00584514
0.00527215
0.00482272
0.00400694
0.00317301
0.00237833
0.00333468
0.00362655
0.00420336
0.00450657
0.00460213
0.00469977
0.00462733
0.00473718
0.00450499
0.00427558
0.00423071
0.00401563
0.00403509
0.00380852
0.00350114
0.00317523
0.00280218
0.00237576
0.0016612
0.00152088
0.00122813
0.0013445
0.00150287
0.00145466
0.00150056
0.00143706
0.0015834
0.00141524
0.00158443
0.00176889
0.00141976
0.00150933
0.00126411
0.00100805
0.00117924
0.00119315
0.000831556
0.000807364
0.000603475
0.000553623
0.0154659
0.017245
0.0192089
0.0203218
0.0210887
0.0216806
0.0215796
0.0215532
0.0210764
0.020617
0.0201066
0.0192876
0.0183769
0.0174064
0.0162317
0.0146847
0.012747
0.0106729
0.00798259
0.00535159
0.0131679
0.0146969
0.0164043
0.0175734
0.018304
0.018735
0.0185814
0.0187919
0.0181639
0.017795
0.0172258
0.0164608
0.0158285
0.0148205
0.0141507
0.0126277
0.0108593
0.00909181
0.00674398
0.00468126
0.0110752
0.0124889
0.0137226
0.0146896
0.0155022
0.015762
0.0157291
0.0157031
0.0152787
0.0149143
0.0144823
0.0140405
0.0134788
0.0125774
0.0117842
0.0106833
0.00906132
0.00755002
0.0054661
0.00384203
0.00901031
0.00984353
0.0111591
0.0119387
0.0125642
0.0128903
0.0128797
0.0131337
0.0127078
0.0123417
0.0118997
0.0114303
0.0110482
0.0103228
0.00947311
0.00878222
0.00734771
0.0057946
0.00452094
0.00301241
0.00696591
0.00799853
0.00875211
0.00931194
0.0100241
0.0101642
0.0100803
0.0100195
0.00997897
0.00987959
0.00919047
0.00911869
0.0086764
0.00805668
0.00755227
0.00688097
0.00566266
0.00498602
0.00346598
0.00242196
0.0048324
0.00572976
0.00650732
0.00680731
0.00724057
0.00739454
0.00712183
0.00726517
0.00718554
0.00693256
0.00678196
0.00659279
0.00601718
0.00586935
0.00533698
0.00484884
0.00438076
0.00331451
0.00249346
0.00172354
0.00303983
0.00337751
0.00378273
0.00421192
0.00439551
0.00440866
0.00436027
0.00441223
0.00432064
0.00404711
0.00415824
0.00385184
0.00381696
0.00377961
0.00330211
0.00270212
0.00246423
0.00217588
0.00134158
0.00102786
0.00101155
0.00117908
0.00128445
0.00113434
0.00156304
0.00154869
0.00171282
0.00156193
0.00148321
0.00148684
0.0014727
0.00131411
0.00109055
0.00117786
0.000918471
0.000995173
0.000858145
0.000568726
0.000511033
0.000373203
0.0126776
0.0145748
0.0167228
0.0182941
0.0193195
0.0197386
0.0202647
0.0200342
0.0198329
0.0193102
0.0186927
0.0180351
0.0171218
0.015932
0.014575
0.0126254
0.0105943
0.0083268
0.00545425
0.00291389
0.0108188
0.0126187
0.014301
0.0156173
0.016646
0.0169817
0.017216
0.0171286
0.0171972
0.0166038
0.0159451
0.0156074
0.0146466
0.0135638
0.0125813
0.0108298
0.00917759
0.00696374
0.0044522
0.00225702
0.00903783
0.010381
0.0120103
0.0131918
0.013897
0.0143108
0.0148052
0.0146424
0.0143022
0.0139204
0.013664
0.0130528
0.0122063
0.0114989
0.010316
0.00911806
0.00768725
0.00578065
0.00363967
0.0016747
0.00722161
0.00844598
0.00970831
0.0106541
0.0114494
0.012048
0.0118428
0.0118368
0.0119474
0.0114363
0.0111332
0.0106699
0.00997712
0.00950664
0.00866404
0.00730573
0.00624599
0.00474901
0.00290715
0.00119817
0.00555422
0.00634961
0.00741937
0.00842755
0.00874004
0.00922377
0.00935384
0.00953565
0.0093242
0.00897298
0.00861502
0.00840413
0.00781204
0.00727615
0.00674303
0.00574749
0.00477957
0.00358551
0.00229272
0.00117219
0.00401714
0.00470899
0.00544723
0.00605391
0.00632791
0.0068273
0.00676012
0.00680567
0.0067387
0.00646535
0.00634999
0.00615544
0.00554603
0.00522578
0.00470626
0.00418557
0.00331144
0.00261345
0.00137891
0.000864502
0.00254575
0.00293463
0.00330712
0.00375168
0.00385787
0.0040698
0.00395638
0.00433446
0.00405203
0.00395324
0.00371796
0.00366052
0.00353049
0.00310794
0.00281967
0.00266851
0.00206646
0.00141201
0.000950151
0.000419947
0.000805443
0.00103733
0.000994714
0.00122192
0.00121769
0.00147092
0.00149309
0.00133885
0.0013945
0.00130852
0.0014129
0.00139111
0.00134789
0.000988576
0.000858935
0.00072876
0.000705675
0.000649329
0.000268174
0.000380215
0.00927629
0.0112609
0.0136538
0.0152485
0.0165419
0.0176584
0.0179796
0.0179723
0.0177184
0.0173805
0.016721
0.0156436
0.0147398
0.0134011
0.0120394
0.0101831
0.0077245
0.00522606
0.00230082
0.000605653
0.00785926
0.00971051
0.0114234
0.0128423
0.0141544
0.014813
0.0154964
0.0156151
0.0152458
0.0149849
0.0142172
0.0136955
0.0126919
0.0116586
0.0103802
0.00862782
0.00672824
0.00423219
0.00177538
0.000504449
0.00629362
0.00781001
0.00960456
0.0109817
0.0119007
0.012635
0.0129008
0.0130643
0.0128528
0.0125466
0.0120377
0.0112948
0.0106329
0.00977642
0.00866649
0.00723461
0.00522352
0.00326394
0.00125613
0.000713303
0.00490246
0.00656265
0.00774598
0.00893707
0.0097371
0.0103472
0.010281
0.0105363
0.0103619
0.0103434
0.0097045
0.00926804
0.00858753
0.00788723
0.00683224
0.00561227
0.00442114
0.00247544
0.00095118
0.000728383
0.0036436
0.00488166
0.00599075
0.00666568
0.00734939
0.00793862
0.00825318
0.00821812
0.00808564
0.00787116
0.00748384
0.00722243
0.00656661
0.00609923
0.00543179
0.0043065
0.00339311
0.00200834
0.000640437
0.000556921
0.00281476
0.00353238
0.00421792
0.00484912
0.0053099
0.00546766
0.00589171
0.00611253
0.00594723
0.00605119
0.00558442
0.00506726
0.00489011
0.00442514
0.00392464
0.00306104
0.00242197
0.00143071
0.000546808
0.000423827
0.00171583
0.00211958
0.0024503
0.00283526
0.00355679
0.00352493
0.00355787
0.00358695
0.00357815
0.00360838
0.00325739
0.00313078
0.00280628
0.00248878
0.00224669
0.00192627
0.00124942
0.000870535
7.41326e-05
0.000434483
0.000582834
0.000612911
0.000970628
0.00100343
0.00103063
0.00118506
0.00126822
0.00136493
0.00142261
0.0014044
0.00132091
0.0010174
0.00113087
0.000745791
0.000791953
0.000608749
0.00071921
0.000494624
1.93114e-05
4.59272e-05
0.00498798
0.00717931
0.00965123
0.0118583
0.0131102
0.0137986
0.0146661
0.0149767
0.0147434
0.0144403
0.0136127
0.0128893
0.0116817
0.0104661
0.00875893
0.00674547
0.00426156
0.00140925
0.00164031
0.00464102
0.00412116
0.00589517
0.00795171
0.00942855
0.0108258
0.0118765
0.012519
0.012425
0.0126254
0.0122626
0.011709
0.0109681
0.0101529
0.00872568
0.00719744
0.00545685
0.00330162
0.00111217
0.00173681
0.0041671
0.00339841
0.00488989
0.00657094
0.00803726
0.0092729
0.00982349
0.0104861
0.0106115
0.0105446
0.0101876
0.00979877
0.00916072
0.00827419
0.00730508
0.00630582
0.00445291
0.00260818
0.000680101
0.00168513
0.00381212
0.00247563
0.00377672
0.00516578
0.00636912
0.00722794
0.00789391
0.00844016
0.00846175
0.00842431
0.00831081
0.00787791
0.0073545
0.0066856
0.00594319
0.00482104
0.0035671
0.00206051
0.000314744
0.00154039
0.00334775
0.00153632
0.00284017
0.00384856
0.0048867
0.00571134
0.00606901
0.00653503
0.00690315
0.00661578
0.00639169
0.00622538
0.00571938
0.00533138
0.00466812
0.00373871
0.0027276
0.00157493
0.000358796
0.00147703
0.00255419
0.000909092
0.00172423
0.00280623
0.00349378
0.00396455
0.00452356
0.00456629
0.00452141
0.00483265
0.00466961
0.00441164
0.00408745
0.0037734
0.00310778
0.00264443
0.0017825
0.00104958
2.61096e-05
0.000996014
0.00205025
0.000613251
0.00131019
0.00156568
0.00237864
0.0022906
0.00262064
0.00289031
0.00291354
0.0029405
0.00264241
0.00270661
0.00246695
0.00228396
0.00192235
0.00174141
0.000954111
0.00048075
1.37925e-05
0.000528325
0.00121512
0.000303628
0.000554408
0.000582065
0.000587224
0.00110672
0.00110146
0.000794581
0.00105068
0.000917554
0.000888837
0.000950639
0.000816129
0.000677863
0.000452779
0.000552095
0.000289765
7.89065e-05
0.000155902
0.000446472
0.000501877
6.82823e-05
0.00260787
0.0050731
0.0071171
0.00862071
0.00986972
0.0105532
0.0109723
0.0108214
0.0104528
0.00991349
0.00916446
0.00796721
0.00652952
0.00472058
0.00238416
0.000272354
0.00335357
0.00638602
0.00929527
0.00055197
0.00154414
0.00399032
0.0058133
0.00714201
0.00814855
0.00885145
0.00905628
0.00918018
0.00881115
0.00858669
0.00777095
0.00657687
0.00529322
0.00367671
0.00200185
0.00028905
0.00290755
0.00578898
0.00857096
0.000785501
0.00099607
0.00299828
0.00458011
0.00573747
0.00690029
0.00723548
0.0075721
0.00768073
0.0074045
0.00674685
0.00631822
0.00524783
0.00415803
0.00282539
0.0013176
0.000653648
0.00308359
0.005472
0.00739811
0.000992854
0.000503338
0.00210066
0.00346861
0.0045641
0.00515761
0.00574318
0.00596025
0.00613709
0.00588296
0.00545632
0.00505503
0.00426396
0.00324306
0.00224689
0.000836789
0.000829471
0.00264053
0.00479805
0.00653608
0.000917343
0.000360704
0.00146074
0.00262176
0.00350818
0.00410756
0.00439232
0.00457332
0.00462375
0.00443503
0.00427423
0.00376295
0.00330944
0.00255154
0.00170608
0.00050323
0.000731964
0.00213021
0.00380991
0.00505546
0.000810725
0.000160141
0.00110561
0.0018984
0.00243941
0.00279757
0.00306924
0.00349617
0.00316916
0.00334489
0.00315225
0.00288247
0.00226526
0.00187304
0.000966545
0.000343655
0.000654852
0.00162292
0.00285044
0.00382347
0.000559588
4.38081e-05
0.000532824
0.00115793
0.00147752
0.00176812
0.00188676
0.00205774
0.00180871
0.0020199
0.00179222
0.00167761
0.00152146
0.00105962
0.000671032
0.000245082
0.000250806
0.00115928
0.0016994
0.0024222
0.000194517
5.86161e-05
0.000214128
0.000140967
0.000333919
0.000702592
0.000816025
0.000789683
0.000992042
0.000757841
0.000601462
0.000509433
0.000746853
0.000199307
9.29349e-05
0.000223096
2.95724e-05
0.000555369
0.000575908
0.00061351
0.00568868
0.00299694
0.000260721
0.00195463
0.00341503
0.00480942
0.00569996
0.00614697
0.00622871
0.00598397
0.00531368
0.00447807
0.00325201
0.00186327
0.000107307
0.00240895
0.00511291
0.00828959
0.0116179
0.0147568
0.00540772
0.00304852
0.00105114
0.00116602
0.00261471
0.00386108
0.00474855
0.00503367
0.00521389
0.00502706
0.00427584
0.00357446
0.0025307
0.00114659
0.000594314
0.00260073
0.00488766
0.00772897
0.0106695
0.0133873
0.00492764
0.00322978
0.00115696
0.000700804
0.00206415
0.00286963
0.00369803
0.00404014
0.00404568
0.00376518
0.00356273
0.00266644
0.00177497
0.000466145
0.000928198
0.00267225
0.00456561
0.006814
0.00938559
0.0118571
0.00440496
0.00299636
0.00136062
0.000243354
0.00133306
0.0022206
0.00271178
0.00293904
0.00311213
0.00299613
0.00270979
0.00208712
0.00147639
0.00048426
0.00100001
0.00232735
0.00394136
0.00608018
0.00820506
0.00997446
0.00365222
0.00241947
0.00108437
0.00017568
0.000682158
0.00149798
0.00181738
0.0020974
0.00230802
0.00231054
0.00176486
0.00143642
0.000912666
0.000247761
0.000698798
0.00222399
0.00334663
0.00499544
0.00649181
0.00795246
0.00295275
0.00218021
0.000833582
0.000189685
0.000362858
0.000851725
0.00135929
0.00158516
0.00164192
0.00149929
0.0012467
0.00087572
0.000653401
0.000208896
0.000728243
0.00153957
0.00258191
0.00378032
0.00485872
0.00575517
0.00159724
0.00124659
0.000556653
0.000176764
0.000298599
0.000724728
0.000778696
0.000797137
0.00096246
0.000915678
0.000754677
0.000742685
0.000530807
3.56916e-06
0.000543537
0.000932873
0.00163859
0.00231153
0.00297992
0.00365073
0.000664556
0.000643411
0.000243335
0.000145786
0.000121711
0.000258199
0.000179975
0.000345505
0.000182052
8.56326e-05
0.000470827
0.000266997
5.76466e-05
0.000161614
0.000144713
0.000511659
0.000458242
0.000913114
0.000977107
0.00126429
0.0118487
0.00911492
0.0063751
0.00402107
0.00218412
0.000794971
0.000292676
0.000670844
0.000838319
0.000554553
8.99355e-05
0.000719721
0.00219378
0.00373622
0.00578459
0.00818022
0.0108551
0.0143042
0.0174627
0.0207433
0.0109799
0.00845597
0.00641403
0.00414148
0.00253469
0.00100883
0.000279102
0.000161432
0.000382656
5.53654e-05
0.000169097
0.00117391
0.00224134
0.00395348
0.00539326
0.00753606
0.0100575
0.0130332
0.0158134
0.0186301
0.00974015
0.00786695
0.0059648
0.00409921
0.00232945
0.00134306
0.000653575
0.000198677
5.39837e-05
0.000326917
0.000723919
0.0015132
0.00223457
0.00363872
0.0051458
0.00681185
0.00907576
0.0112981
0.0137431
0.0162954
0.0085724
0.00706596
0.00494121
0.00358838
0.00250132
0.00162811
0.000853598
0.000436529
0.00025074
0.000175272
0.000690598
0.00146469
0.00203452
0.00309893
0.0045137
0.00571357
0.0077119
0.00985451
0.0120368
0.0139163
0.00695225
0.00557458
0.00420034
0.00304179
0.0018541
0.00134375
0.000730272
0.000554054
0.000491099
0.000632781
0.000872014
0.00135279
0.0016739
0.00268865
0.00369755
0.00482498
0.00629631
0.00786249
0.00956933
0.0112629
0.00507778
0.00448057
0.0031557
0.00226682
0.00162065
0.000899569
0.000666063
0.000576631
0.00029684
0.000467934
0.000775505
0.00102543
0.00152342
0.00229765
0.00293482
0.00365552
0.00464114
0.0060428
0.0070119
0.00803768
0.00313509
0.00279312
0.00210225
0.00127392
0.00101168
0.000552529
0.000610574