/*--------------------------------*- C++ -*----------------------------------*\
| =========                 |                                                 |
| \\      /  F ield         | OpenFOAM: The Open Source CFD Toolbox           |
|  \\    /   O peration     | Version:  2212                                  |
|   \\  /    A nd           | Website:  www.openfoam.com                      |
|    \\/     M anipulation  |                                                 |
\*---------------------------------------------------------------------------*/
FoamFile
{
    version     2.0;
    format      ascii;
    arch        "LSB;label=32;scalar=64";
    class       volScalarField;
    location    "0";
    object      T;
}
// * * * * * * * * * * * * * * * * * * * * * * * * * * * * * * * * * * * * * //

dimensions      [0 0 0 1 0 0 0];

internalField   nonuniform List<scalar> 
3200
(
343.89
344.87
345.523
346.355
347.046
347.794
348.096
348.496
348.776
348.617
348.935
348.344
347.899
347.725
346.599
345.881
345.225
344.427
343.188
342.144
338.077
338.886
339.443
340.173
340.773
341.471
341.666
342.047
342.29
342.136
342.432
341.974
341.518
341.416
340.414
339.799
339.201
338.529
337.413
336.581
332.233
332.926
333.364
334.007
334.515
335.117
335.236
335.592
335.791
335.675
335.875
335.617
335.138
335.109
334.189
333.701
333.197
332.641
331.663
331.039
326.358
326.965
327.262
327.817
328.297
328.74
328.813
329.11
329.294
329.207
329.312
329.151
328.787
328.768
327.999
327.59
327.19
326.729
325.91
325.443
320.501
320.954
321.231
321.669
322.071
322.36
322.4
322.664
322.802
322.742
322.745
322.682
322.439
322.387
321.835
321.44
321.168
320.802
320.167
319.837
314.639
314.944
315.216
315.488
315.815
315.976
315.97
316.193
316.313
316.263
316.245
316.202
316.077
316.037
315.619
315.299
315.137
314.877
314.415
314.202
308.806
308.963
309.194
309.27
309.534
309.623
309.568
309.699
309.804
309.78
309.755
309.716
309.67
309.638
309.405
309.185
309.089
308.949
308.665
308.537
302.951
303.017
303.089
303.115
303.208
303.227
303.192
303.25
303.295
303.281
303.279
303.259
303.241
303.222
303.159
303.06
303.045
303.014
302.905
302.85
344.804
345.625
346.417
347.421
347.976
348.582
349.06
349.449
349.96
349.528
349.937
349.264
348.968
348.574
347.54
346.812
346.13
345.118
344.061
342.925
338.883
339.484
340.195
341.095
341.52
342.125
342.451
342.813
343.284
342.873
343.237
342.679
342.386
342.109
341.19
340.503
339.946
339.062
338.178
337.213
332.96
333.414
333.927
334.781
335.104
335.638
335.894
336.176
336.582
336.25
336.56
336.129
335.856
335.611
334.836
334.239
333.798
332.983
332.289
331.491
327.003
327.338
327.722
328.509
328.703
329.176
329.332
329.575
329.92
329.63
329.876
329.571
329.271
329.155
328.499
327.981
327.684
326.965
326.388
325.788
320.994
321.223
321.569
322.206
322.306
322.69
322.812
323.035
323.251
323.038
323.17
323.018
322.719
322.662
322.147
321.711
321.583
320.944
320.507
320.07
315.025
315.176
315.438
315.852
315.934
316.222
316.288
316.479
316.593
316.504
316.522
316.425
316.257
316.193
315.851
315.5
315.451
314.979
314.639
314.357
309.026
309.128
309.292
309.505
309.526
309.786
309.78
309.926
309.988
309.904
309.897
309.85
309.755
309.715
309.524
309.276
309.282
308.983
308.808
308.627
303.025
303.061
303.111
303.179
303.188
303.279
303.284
303.335
303.338
303.309
303.307
303.315
303.281
303.246
303.187
303.093
303.122
303.016
302.942
302.886
345.948
346.869
347.492
348.59
349.169
349.759
350.278
350.506
350.92
351.068
351.001
350.413
350.023
349.786
348.7
348.049
347.227
346.194
345.135
343.969
339.825
340.58
341.081
342.064
342.577
343.088
343.516
343.63
344.078
344.181
344.149
343.661
343.235
343.107
342.198
341.571
340.807
340.029
339.032
338.081
333.717
334.32
334.736
335.578
336.012
336.477
336.796
336.828
337.206
337.317
337.318
336.943
336.528
336.473
335.695
335.133
334.481
333.892
332.966
332.219
327.649
328.016
328.439
329.125
329.494
329.833
330.091
330.052
330.423
330.524
330.539
330.219
329.855
329.857
329.2
328.719
328.169
327.727
326.917
326.37
321.561
321.815
322.106
322.677
322.973
323.158
323.371
323.342
323.644
323.743
323.731
323.492
323.208
323.221
322.717
322.34
321.931
321.571
320.891
320.534
315.425
315.597
315.771
316.206
316.458
316.508
316.686
316.652
316.865
317.007
316.93
316.761
316.586
316.592
316.238
315.954
315.701
315.374
314.907
314.701
309.265
309.387
309.463
309.739
309.904
309.905
310.017
309.981
310.101
310.226
310.138
310.068
309.966
309.985
309.76
309.573
309.438
309.213
308.926
308.847
303.109
303.154
303.151
303.266
303.338
303.301
303.369
303.356
303.383
303.442
303.396
303.357
303.353
303.351
303.26
303.199
303.178
303.096
302.992
302.978
347.011
347.883
348.648
349.475
350.273
351.178
351.514
351.835
352.009
352.317
352.209
351.627
351.209
351.248
350.108
349.267
348.271
347.44
346.23
345.081
340.762
341.465
342.139
342.798
343.511
344.3
344.578
344.843
344.965
345.305
345.207
344.646
344.257
344.368
343.328
342.681
341.756
341.103
340.044
339.07
334.554
335.06
335.644
336.17
336.781
337.407
337.703
337.842
337.973
338.295
338.189
337.697
337.36
337.507
336.583
336.058
335.297
334.774
333.823
333.089
328.331
328.632
329.119
329.602
330.077
330.579
330.849
330.853
331.028
331.334
331.181
330.758
330.526
330.619
329.925
329.449
328.86
328.425
327.622
327.125
322.058
322.249
322.608
323.079
323.407
323.753
324
323.96
324.08
324.348
324.215
323.873
323.701
323.779
323.287
322.868
322.419
322.093
321.473
321.085
315.756
315.861
316.147
316.497
316.731
316.99
317.138
317.069
317.199
317.365
317.308
317.005
316.935
316.991
316.666
316.344
315.986
315.797
315.341
315.039
309.477
309.503
309.712
309.932
310.087
310.208
310.279
310.237
310.341
310.401
310.405
310.171
310.204
310.191
310.039
309.838
309.608
309.473
309.231
309.032
303.199
303.177
303.245
303.332
303.407
303.429
303.433
303.44
303.466
303.477
303.495
303.415
303.412
303.421
303.357
303.289
303.219
303.167
303.108
303.025
347.983
348.944
349.866
350.753
351.511
352.332
352.857
353.051
353.33
353.424
353.557
352.993
352.514
352.277
351.196
350.451
349.45
348.64
347.534
346.459
341.563
342.356
343.14
343.919
344.545
345.286
345.734
345.905
346.142
346.284
346.354
345.851
345.416
345.247
344.348
343.648
342.787
342.115
341.157
340.255
335.129
335.785
336.459
337.133
337.618
338.296
338.632
338.834
338.993
339.124
339.155
338.749
338.343
338.187
337.482
336.893
336.134
335.599
334.831
334.066
328.734
329.247
329.807
330.379
330.74
331.296
331.543
331.774
331.858
331.989
331.982
331.696
331.362
331.197
330.604
330.164
329.52
329.092
328.515
327.897
322.385
322.767
323.207
323.636
323.923
324.354
324.509
324.678
324.729
324.902
324.844
324.607
324.375
324.202
323.767
323.418
322.92
322.62
322.181
321.679
316.019
316.271
316.586
316.847
317.085
317.416
317.499
317.575
317.648
317.755
317.729
317.556
317.379
317.286
316.961
316.673
316.345
316.163
315.863
315.495
309.611
309.778
309.962
310.104
310.227
310.481
310.55
310.581
310.579
310.638
310.638
310.529
310.432
310.377
310.172
309.968
309.831
309.707
309.521
309.292
303.239
303.277
303.362
303.399
303.415
303.522
303.552
303.553
303.527
303.582
303.577
303.52
303.493
303.481
303.404
303.351
303.294
303.248
303.182
303.128
348.905
349.917
350.947
351.825
352.831
353.429
353.971
354.488
354.649
354.514
354.819
354.185
353.728
353.318
352.577
351.629
350.677
349.675
348.564
347.564
342.341
343.209
344.063
344.852
345.72
346.229
346.711
347.128
347.352
347.208
347.441
346.938
346.476
346.118
345.502
344.668
343.838
342.975
342.071
341.197
335.813
336.462
337.216
337.9
338.605
339.074
339.441
339.8
340.086
339.918
340.065
339.703
339.282
338.957
338.405
337.71
337.026
336.326
335.636
334.81
329.301
329.772
330.457
330.975
331.512
331.993
332.196
332.53
332.757
332.689
332.745
332.46
332.099
331.824
331.342
330.783
330.219
329.667
329.138
328.406
322.779
323.154
323.729
324.06
324.489
324.84
324.98
325.29
325.503
325.453
325.407
325.189
324.911
324.736
324.35
323.907
323.472
323.049
322.704
322.105
316.269
316.556
316.974
317.17
317.5
317.786
317.843
318.073
318.2
318.205
318.173
317.987
317.77
317.655
317.371
317.046
316.75
316.486
316.24
315.784
309.759
309.961
310.201
310.318
310.511
310.689
310.729
310.846
310.92
310.914
310.901
310.782
310.677
310.616
310.401
310.236
310.021
309.927
309.772
309.473
303.269
303.352
303.434
303.461
303.529
303.598
303.582
303.632
303.662
303.66
303.661
303.617
303.58
303.58
303.465
303.438
303.347
303.339
303.28
303.188
349.881
350.959
352.08
353.073
354.271
354.644
355.106
355.665
355.955
355.793
355.697
355.195
354.91
354.435
353.704
352.765
351.734
350.792
349.606
348.441
343.136
344.114
345.037
345.958
347.004
347.269
347.631
348.181
348.469
348.285
348.203
347.725
347.512
347.051
346.469
345.657
344.753
343.976
342.92
342.022
336.455
337.292
338.039
338.864
339.712
339.897
340.233
340.734
340.992
340.832
340.709
340.358
340.126
339.767
339.266
338.574
337.814
337.18
336.289
335.561
329.82
330.458
331.11
331.788
332.47
332.619
332.896
333.35
333.55
333.396
333.299
332.989
332.744
332.505
332.102
331.544
330.908
330.407
329.681
329.086
323.178
323.666
324.185
324.709
325.263
325.368
325.604
325.929
326.09
325.978
325.91
325.63
325.42
325.285
324.974
324.533
324.025
323.625
323.059
322.622
316.53
316.908
317.277
317.675
318.05
318.146
318.291
318.526
318.637
318.531
318.485
318.337
318.147
318.082
317.87
317.532
317.14
316.869
316.481
316.191
309.898
310.125
310.385
310.618
310.851
310.927
310.988
311.135
311.179
311.119
311.09
311.028
310.902
310.88
310.724
310.588
310.291
310.128
309.904
309.721
303.312
303.38
303.495
303.555
303.639
303.657
303.704
303.723
303.754
303.735
303.715
303.691
303.653
303.656
303.588
303.534
303.441
303.411
303.342
303.265
350.755
352
353.204
354.052
355.153
355.52
356.4
356.54
356.947
356.784
356.888
356.48
355.982
355.539
354.799
353.817
352.716
351.659
350.472
349.449
343.968
344.984
346.037
346.81
347.742
348.071
348.823
348.933
349.319
349.107
349.219
348.885
348.412
348.048
347.438
346.585
345.621
344.726
343.708
342.867
337.244
338.028
338.885
339.588
340.413
340.61
341.273
341.337
341.712
341.495
341.591
341.372
340.875
340.57
340.123
339.39
338.556
337.81
336.96
336.247
330.482
331.111
331.763
332.415
333.071
333.176
333.726
333.798
334.072
333.915
333.995
333.809
333.36
333.119
332.815
332.182
331.555
330.913
330.2
329.645
323.736
324.176
324.66
325.206
325.774
325.77
326.198
326.264
326.494
326.369
326.436
326.321
325.92
325.742
325.516
325.005
324.552
324.024
323.457
323.063
316.984
317.296
317.593
318.033
318.45
318.345
318.707
318.78
318.919
318.832
318.849
318.835
318.504
318.378
318.213
317.84
317.531
317.116
316.748
316.474
310.236
310.395
310.551
310.854
311.078
310.987
311.228
311.274
311.371
311.333
311.291
311.325
311.13
311.021
310.954
310.707
310.538
310.239
310.053
309.893
303.435
303.486
303.544
303.645
303.715
303.697
303.755
303.779
303.8
303.798
303.786
303.797
303.724
303.695
303.664
303.585
303.534
303.433
303.355
303.33
351.808
352.919
354.096
354.883
356.111
356.639
357.283
357.576
357.866
357.852
357.847
357.422
356.938
356.409
355.758
354.743
353.574
352.782
351.584
350.271
344.881
345.803
346.806
347.537
348.583
349.041
349.567
349.779
350.075
350.017
350.054
349.708
349.207
348.79
348.296
347.412
346.358
345.657
344.662
343.561
337.985
338.723
339.561
340.221
341.071
341.448
341.865
342.067
342.338
342.278
342.286
342.02
341.529
341.195
340.82
340.068
339.188
338.521
337.752
336.878
331.124
331.687
332.336
332.923
333.598
333.904
334.271
334.344
334.597
334.582
334.549
334.349
333.892
333.672
333.372
332.767
332.081
331.44
330.827
330.185
324.269
324.619
325.124
325.654
326.148
326.344
326.693
326.657
326.907
326.907
326.831
326.753
326.269
326.156
325.941
325.436
324.998
324.434
323.915
323.495
317.362
317.581
317.927
318.36
318.691
318.817
319.054
319.004
319.233
319.244
319.125
319.111
318.735
318.676
318.523
318.186
317.87
317.453
317.094
316.777
310.421
310.559
310.771
311.041
311.236
311.326
311.46
311.411
311.54
311.536
311.462
311.494
311.24
311.173
311.13
310.965
310.742
310.489
310.259
310.047
303.505
303.567
303.625
303.705
303.777
303.788
303.861
303.827
303.859
303.866
303.823
303.869
303.743
303.731
303.739
303.704
303.607
303.529
303.434
303.351
352.789
353.817
354.787
355.911
356.836
357.761
358.106
358.535
358.806
358.812
358.816
358.298
357.745
357.439
356.562
355.718
354.584
353.635
352.222
350.982
345.73
346.604
347.4
348.354
349.198
350.009
350.267
350.627
350.868
350.897
350.897
350.436
349.929
349.656
348.968
348.201
347.231
346.403
345.22
344.146
338.693
339.379
340.097
340.886
341.597
342.244
342.477
342.778
342.997
343.049
343.011
342.606
342.191
341.883
341.44
340.736
339.92
339.181
338.264
337.325
331.654
332.176
332.821
333.41
333.985
334.501
334.696
334.928
335.167
335.23
335.195
334.813
334.472
334.217
333.911
333.309
332.603
332.015
331.312
330.51
324.597
324.964
325.51
325.969
326.483
326.761
326.921
327.11
327.346
327.42
327.393
327.041
326.774
326.611
326.351
325.916
325.331
324.826
324.374
323.73
317.546
317.803
318.203
318.58
318.915
319.045
319.174
319.343
319.528
319.609
319.572
319.3
319.095
319.047
318.84
318.517
318.104
317.681
317.405
316.986
310.523
310.713
310.948
311.146
311.388
311.398
311.514
311.6
311.717
311.752
311.736
311.552
311.431
311.451
311.337
311.114
310.879
310.616
310.464
310.218
303.524
303.594
303.693
303.725
303.834
303.828
303.875
303.884
303.94
303.942
303.922
303.878
303.834
303.827
303.783
303.732
303.656
303.548
303.512
303.438
353.623
354.496
355.754
356.851
357.685
358.454
358.915
359.37
359.724
359.699
359.707
359.097
358.788
358.318
357.335
356.474
355.312
354.406
352.876
351.698
346.417
347.203
348.226
349.185
349.93
350.625
350.961
351.383
351.686
351.656
351.677
351.174
350.844
350.481
349.585
348.894
347.821
347.08
345.78
344.76
339.196
339.905
340.708
341.563
342.211
342.819
343.047
343.392
343.686
343.653
343.673
343.23
343.004
342.683
341.886
341.328
340.405
339.765
338.682
337.867
332.054
332.637
333.259
333.964
334.513
335.004
335.167
335.442
335.704
335.681
335.713
335.291
335.164
334.904
334.225
333.791
333.028
332.49
331.588
330.98
324.935
325.387
325.847
326.37
326.817
327.216
327.338
327.495
327.719
327.713
327.734
327.398
327.309
327.146
326.571
326.275
325.699
325.177
324.506
324.103
317.812
318.13
318.455
318.808
319.144
319.431
319.519
319.589
319.767
319.777
319.827
319.538
319.475
319.421
318.959
318.779
318.359
317.938
317.485
317.232
310.682
310.91
311.075
311.262
311.466
311.664
311.738
311.733
311.841
311.839
311.899
311.712
311.707
311.674
311.368
311.267
311.055
310.738
310.505
310.352
303.575
303.655
303.714
303.784
303.821
303.931
303.933
303.93
303.973
303.971
303.981
303.931
303.906
303.929
303.789
303.773
303.715
303.589
303.529
303.463
354.017
355.256
356.414
357.608
358.319
359.085
359.557
360.002
360.281
360.467
360.327
360.034
359.755
359.119
358.006
356.931
355.878
354.735
353.468
352.327
346.755
347.82
348.798
349.88
350.457
351.149
351.51
351.906
352.166
352.317
352.242
351.945
351.676
351.181
350.167
349.249
348.338
347.363
346.308
345.334
339.561
340.415
341.228
342.206
342.62
343.205
343.528
343.874
344.08
344.2
344.142
343.89
343.621
343.257
342.357
341.608
340.858
340.019
339.132
338.334
332.365
333.062
333.688
334.515
334.804
335.316
335.54
335.867
336.003
336.158
336.058
335.839
335.646
335.361
334.565
333.99
333.419
332.722
331.99
331.337
325.188
325.736
326.158
326.821
327.052
327.443
327.603
327.89
327.964
328.121
327.99
327.827
327.687
327.483
326.829
326.406
325.964
325.444
324.906
324.39
317.989
318.356
318.661
319.161
319.343
319.629
319.681
319.942
319.974
320.081
319.986
319.867
319.774
319.692
319.127
318.86
318.521
318.19
317.785
317.452
310.789
311.007
311.172
311.491
311.613
311.792
311.808
311.992
311.984
312.034
311.999
311.917
311.855
311.839
311.471
311.297
311.112
310.926
310.698
310.526
303.609
303.677
303.744
303.837
303.903
303.929
303.994
304.023
304.019
304.042
304.004
304.005
303.934
303.964
303.864
303.785
303.722
303.678
303.583
303.538
354.522
355.796
356.879
358.203
358.949
359.519
360.263
360.704
360.944
361.06
360.751
360.624
360.091
359.751
358.67
357.633
356.564
355.224
354.155
352.786
347.221
348.29
349.215
350.393
351.039
351.493
352.143
352.543
352.727
352.812
352.593
352.465
351.973
351.69
350.773
349.862
348.886
347.787
346.863
345.695
339.911
340.789
341.603
342.625
343.146
343.5
344.025
344.409
344.562
344.624
344.435
344.373
343.893
343.692
342.944
342.096
341.295
340.369
339.634
338.637
332.627
333.327
334.005
334.876
335.257
335.52
335.953
336.285
336.427
336.448
336.325
336.341
335.866
335.741
335.102
334.374
333.671
332.956
332.471
331.603
325.362
325.867
326.455
327.122
327.384
327.611
327.911
328.191
328.279
328.322
328.287
328.286
327.884
327.788
327.267
326.697
326.129
325.619
325.287
324.602
318.117
318.451
318.855
319.354
319.51
319.741
319.941
320.102
320.203
320.243
320.211
320.209
319.921
319.845
319.436
319.075
318.611
318.338
318.084
317.594
310.884
311.056
311.323
311.635
311.716
311.887
311.933
312.044
312.124
312.17
312.138
312.143
311.938
311.924
311.708
311.486
311.141
311.039
310.855
310.55
303.659
303.701
303.768
303.884
303.931
303.985
303.968
304.036
304.077
304.086
304.049
304.057
304.023
304.006
303.912
303.834
303.71
303.678
303.628
303.536
355.002
356.371
357.417
358.586
359.454
360.253
360.746
361.332
361.297
361.525
361.534
361.33
360.498
360.166
359.198
358.065
357.158
355.883
354.654
353.2
347.606
348.81
349.676
350.749
351.409
352.111
352.559
353.05
353.035
353.207
353.233
353.097
352.337
352.029
351.18
350.175
349.418
348.351
347.269
346.068
340.26
341.264
342.012
342.909
343.393
344.015
344.414
344.79
344.817
344.96
344.966
344.931
344.211
343.953
343.27
342.348
341.738
340.867
339.949
338.93
332.92
333.713
334.35
335.146
335.464
335.966
336.275
336.603
336.623
336.757
336.747
336.769
336.153
335.929
335.42
334.596
334.052
333.411
332.62
331.809
325.609
326.218
326.705
327.335
327.599
327.955
328.166
328.463
328.505
328.558
328.557
328.628
328.089
327.928
327.552
326.886
326.436
325.948
325.376
324.74
318.3
318.768
319.11
319.536
319.757
319.917
320.114
320.348
320.368
320.406
320.37
320.476
320.046
319.916
319.686
319.242
318.842
318.496
318.081
317.681
310.992
311.289
311.471
311.787
311.829
311.96
312.09
312.211
312.247
312.239
312.259
312.281
312.044
311.955
311.851
311.595
311.281
311.124
310.844
310.592
303.665
303.779
303.853
303.975
303.962
304.016
304.043
304.102
304.109
304.103
304.1
304.107
304.027
304.036
303.979
303.909
303.767
303.729
303.643
303.561
355.33
356.672
357.863
358.834
359.671
360.688
361.329
361.805
361.924
362.131
361.828
361.705
361.171
360.513
359.639
358.594
357.438
356.62
355.145
353.744
347.903
349.068
350.093
350.918
351.625
352.546
353.077
353.499
353.548
353.74
353.492
353.406
352.936
352.349
351.649
350.648
349.71
348.949
347.681
346.542
340.467
341.47
342.382
343.099
343.643
344.455
344.855
345.196
345.265
345.38
345.194
345.151
344.753
344.22
343.678
342.8
342.01
341.349
340.242
339.369
333.034
333.909
334.676
335.288
335.692
336.298
336.691
336.951
337.05
337.078
336.959
336.9
336.588
336.127
335.733
334.995
334.31
333.753
332.847
332.208
325.652
326.364
326.973
327.449
327.776
328.19
328.551
328.759
328.765
328.834
328.727
328.717
328.452
328.055
327.772
327.223
326.634
326.229
325.472
325.055
318.305
318.852
319.254
319.614
319.85
320.109
320.379
320.588
320.522
320.606
320.602
320.538
320.297
320.002
319.815
319.466
319.039
318.722
318.165
317.885
310.976
311.344
311.557
311.803
311.91
312.062
312.237
312.391
312.319
312.391
312.389
312.37
312.183
312.017
311.919
311.713
311.415
311.211
310.894
310.729
303.7
303.804
303.875
303.948
303.998
304.034
304.105
304.161
304.139
304.16
304.152
304.148
304.086
304.024
304.001
303.929
303.816
303.753
303.624
303.593
355.519
356.725
358.167
359.192
360.119
361.01
361.7
362.077
362.179
362.541
362.398
362.172
361.738
360.82
360.13
359.013
358.079
356.827
355.322
353.906
348.077
349.124
350.344
351.169
352.023
352.808
353.365
353.721
353.76
354.041
354.02
353.797
353.4
352.639
352.044
350.974
350.278
349.182
347.86
346.634
340.633
341.554
342.54
343.208
343.976
344.663
345.097
345.442
345.407
345.64
345.64
345.437
345.129
344.452
344.004
343.007
342.446
341.581
340.429
339.4
333.228
333.942
334.796
335.338
335.97
336.533
336.873
337.17
337.11
337.272
337.316
337.127
336.906
336.31
335.977
335.153
334.642
333.988
333.023
332.193
325.831
326.402
327.056
327.468
327.988
328.395
328.664
328.946
328.859
328.953
329.017
328.83
328.668
328.221
327.949
327.315
326.913
326.435
325.64
325.035
318.459
318.873
319.349
319.645
320.002
320.301
320.435
320.659
320.624
320.711
320.74
320.576
320.448
320.147
319.992
319.515
319.201
318.9
318.283
317.901
311.091
311.338
311.642
311.818
311.995
312.236
312.287
312.402
312.378
312.464
312.455
312.326
312.273
312.102
311.977
311.761
311.525
311.352
310.963
310.756
303.713
303.791
303.895
303.953
304.01
304.119
304.108
304.158
304.146
304.186
304.176
304.123
304.104
304.069
304.018
303.947
303.876
303.794
303.687
303.583
355.505
357.024
358.316
359.262
360.243
361.19
361.749
362.375
362.452
362.752
362.609
362.484
361.912
361.011
360.432
359.228
358.177
357.005
355.359
354.118
348.085
349.369
350.465
351.295
352.094
352.949
353.442
353.96
354.018
354.263
354.169
354.06
353.605
352.785
352.326
351.251
350.318
349.328
347.852
346.857
340.663
341.755
342.657
343.37
344.014
344.769
345.15
345.562
345.62
345.837
345.746
345.646
345.322
344.64
344.229
343.36
342.497
341.689
340.436
339.608
333.287
334.152
334.878
335.471
335.979
336.587
336.908
337.282
337.271
337.458
337.41
337.348
337.042
336.533
336.166
335.434
334.718
334.066
333.037
332.407
325.901
326.598
327.138
327.546
327.977
328.472
328.713
329.035
328.945
329.11
329.097
329.015
328.793
328.41
328.101
327.513
326.999
326.461
325.682
325.226
318.52
319.034
319.386
319.657
319.963
320.366
320.513
320.737
320.653
320.781
320.789
320.713
320.601
320.29
320.063
319.633
319.296
318.893
318.34
318.045
311.128
311.471
311.653
311.809
311.974
312.258
312.33
312.451
312.383
312.463
312.457
312.427
312.342
312.18
312.035
311.811
311.594
311.356
311.015
310.853
303.737
303.836
303.933
303.951
304.019
304.117
304.128
304.181
304.133
304.176
304.165
304.191
304.145
304.085
304.026
303.971
303.89
303.8
303.661
303.634
355.716
357.114
358.472
359.578
360.477
361.21
362.036
362.332
362.735
363.134
362.867
362.426
362.174
361.268
360.612
359.466
358.322
357.332
355.634
354.49
348.251
349.455
350.635
351.559
352.324
352.962
353.697
353.932
354.275
354.629
354.396
354.016
353.8
353.007
352.421
351.435
350.496
349.629
348.139
347.189
340.81
341.858
342.844
343.608
344.153
344.764
345.374
345.636
345.832
346.137
345.962
345.652
345.432
344.769
344.27
343.441
342.642
341.948
340.73
339.899
333.37
334.236
335.052
335.688
336.106
336.574
337.073
337.307
337.444
337.737
337.581
337.295
337.093
336.601
336.141
335.506
334.857
334.307
333.337
332.614
325.94
326.618
327.274
327.758
328.076
328.426
328.801
329.011
329.092
329.332
329.213
328.972
328.82
328.384
328.067
327.613
327.123
326.664
325.938
325.386
318.534
319.028
319.52
319.825
320.017
320.342
320.602
320.714
320.77
320.952
320.825
320.713
320.558
320.258
320.008
319.718
319.405
319.072
318.54
318.186
311.16
311.416
311.736
311.867
312.028
312.272
312.369
312.417
312.467
312.576
312.496
312.437
312.305
312.158
312.004
311.865
311.689
311.463
311.153
310.955
303.749
303.829
303.933
303.957
304.043
304.132
304.126
304.149
304.167
304.205
304.196
304.154
304.124
304.063
304.026
303.982
303.923
303.859
303.743
303.684
355.894
357.113
358.677
359.804
360.525
361.459
362.198
362.527
362.788
363.138
362.877
362.341
361.968
361.363
360.732
359.705
358.55
357.249
355.854
354.661
348.402
349.409
350.809
351.799
352.393
353.225
353.824
354.112
354.356
354.647
354.429
353.968
353.583
353.13
352.59
351.644
350.669
349.588
348.329
347.369
340.961
341.734
342.977
343.778
344.274
344.972
345.443
345.749
345.976
346.212
346.04
345.621
345.275
344.848
344.41
343.617
342.822
341.924
340.868
340.043
333.551
334.115
335.142
335.811
336.188
336.757
337.121
337.426
337.576
337.733
337.657
337.298
337.006
336.639
336.276
335.607
334.995
334.272
333.416
332.744
326.134
326.542
327.325
327.831
328.124
328.549
328.863
329.116
329.168
329.283
329.306
328.977
328.755
328.467
328.152
327.648
327.182
326.627
325.964
325.492
318.666
318.929
319.506
319.846
320.08
320.354
320.62
320.811
320.837
320.885
320.966
320.712
320.532
320.351
320.086
319.716
319.404
319.011
318.576
318.244
311.22
311.363
311.69
311.882
312.073
312.202
312.385
312.494
312.478
312.521
312.601
312.467
312.314
312.248
312.072
311.852
311.642
311.445
311.167
310.929
303.763
303.814
303.907
303.971
304.052
304.073
304.129
304.16
304.168
304.195
304.245
304.18
304.129
304.1
304.029
303.993
303.902
303.843
303.739
303.668
356.034
356.95
358.818
359.801
360.485
361.486
362.156
362.629
362.784
363.124
362.746
362.662
361.944
361.35
360.646
359.816
358.492
357.067
355.782
354.671
348.572
349.29
350.943
351.802
352.365
353.195
353.804
354.174
354.326
354.597
354.346
354.24
353.571
353.016
352.521
351.802
350.599
349.386
348.246
347.381
341.081
341.693
343.064
343.786
344.252
344.909
345.436
345.792
345.896
346.144
345.966
345.838
345.27
344.769
344.404
343.834
342.76
341.743
340.772
340.071
333.633
334.116
335.213
335.775
336.134
336.666
337.18
337.455
337.541
337.724
337.619
337.464
337.061
336.57
336.293
335.877
334.948
334.109
333.322
332.801
326.181
326.552
327.373
327.812
328.043
328.497
328.917
329.149
329.176
329.303
329.248
329.106
328.855
328.39
328.246
327.921
327.139
326.512
325.86
325.501
318.651
319
319.523
319.812
320.015
320.381
320.648
320.832
320.834
320.908
320.87
320.775
320.581
320.282
320.185
319.949
319.365
318.967
318.418
318.24
311.176
311.419
311.728
311.88
312.02
312.241
312.397
312.544
312.507
312.535
312.537
312.502
312.351
312.187
312.122
311.962
311.637
311.393
311.043
310.942
303.754
303.85
303.941
303.979
304.017
304.115
304.14
304.208
304.222
304.191
304.203
304.187
304.153
304.099
304.063
303.996
303.899
303.802
303.702
303.659
)
;

boundaryField
{
    hotSide
    {
        type            fixedGradient;
        gradient        nonuniform List<scalar> 
400
(
463.165
476.772
489.949
502.639
514.783
526.326
537.211
547.386
556.802
565.41
573.167
580.032
585.971
590.95
594.943
597.929
599.889
600.813
600.694
599.532
474.973
488.973
502.536
515.599
528.105
539.995
551.212
561.702
571.413
580.297
588.308
595.404
601.549
606.71
610.859
613.972
616.033
617.028
616.952
615.803
485.482
499.838
513.749
527.152
539.987
552.193
563.713
574.49
584.472
593.608
601.852
609.161
615.497
620.826
625.12
628.354
630.51
631.575
631.543
630.412
494.628
509.301
523.522
537.228
550.355
562.844
574.635
585.669
595.894
605.258
613.713
621.214
627.724
633.207
637.634
640.979
643.225
644.358
644.37
643.26
502.361
517.308
531.799
545.767
559.151
571.886
583.913
595.174
605.613
615.177
623.818
631.49
638.155
643.776
648.323
651.77
654.099
655.295
655.351
654.265
508.64
523.819
538.536
552.726
566.326
579.27
591.499
602.952
613.573
623.309
632.11
639.93
646.729
652.471
657.123
660.662
663.066
664.321
664.42
663.36
513.439
528.802
543.702
558.072
571.846
584.96
597.353
608.963
619.734
629.611
638.545
646.488
653.4
659.244
663.987
667.604
670.074
671.384
671.523
670.491
516.738
532.24
547.277
561.782
575.688
588.932
601.45
613.181
624.067
634.055
643.093
651.134
658.136
664.062
668.879
672.562
675.089
676.446
676.624
675.62
518.531
534.124
549.251
563.846
577.841
591.172
603.776
615.59
626.558
636.624
645.736
653.848
660.916
666.904
671.779
675.514
678.087
679.485
679.698
678.723
518.817
534.452
549.623
564.262
578.302
591.679
604.328
616.188
627.201
637.312
646.469
654.624
661.735
667.763
672.677
676.45
679.059
680.49
680.734
679.787
517.606
533.235
548.402
563.04
577.081
590.46
603.114
614.982
626.005
636.127
645.297
653.467
660.596
666.644
671.579
675.374
678.007
679.463
679.734
678.815
514.916
530.491
545.607
560.196
574.194
587.533
600.152
611.988
622.984
633.084
642.237
650.395
657.516
663.562
668.499
672.301
674.947
676.42
676.713
675.821
510.771
526.243
541.261
555.758
569.667
582.925
595.468
607.235
618.168
628.213
637.317
645.435
652.523
658.544
663.465
667.259
669.905
671.388
671.697
670.831
505.203
520.525
535.399
549.758
563.537
576.67
589.097
600.757
611.592
621.549
630.575
638.624
645.655
651.63
656.516
660.287
662.921
664.404
664.725
663.882
498.251
513.378
528.063
542.24
555.845
568.814
581.086
592.602
603.304
613.14
622.057
630.012
636.961
642.868
647.702
651.434
654.045
655.519
655.847
655.026
489.962
504.848
519.3
533.253
546.643
559.408
571.488
582.824
593.36
603.043
611.823
619.656
626.5
632.319
637.081
640.761
643.337
644.794
645.124
644.323
480.388
494.991
509.168
522.855
535.991
548.515
560.366
571.487
581.824
591.325
599.94
607.626
614.343
620.053
624.727
628.34
630.869
632.302
632.629
631.847
469.59
483.869
497.731
511.114
523.959
536.204
547.792
558.666
568.773
578.062
586.486
594.002
600.568
606.152
610.722
614.254
616.727
618.128
618.447
617.682
457.636
471.552
485.061
498.104
510.621
522.554
533.846
544.443
554.291
563.343
571.55
578.872
585.269
590.708
595.159
598.597
601.004
602.366
602.674
601.925
444.602
458.119
471.24
483.909
496.065
507.655
518.621
528.911
538.473
547.261
555.23
562.337
568.546
573.824
578.141
581.476
583.808
585.124
585.416
584.682
)
;
    }
    coldSide
    {
        type            mixed;
        refValue        uniform 300;
        refGradient     uniform 0;
        valueFraction   uniform 0.991591;
        source          uniform 0;
        value           nonuniform List<scalar> 
400
(
300.025
300.025
300.026
300.027
300.027
300.027
300.028
300.029
300.029
300.03
300.03
300.03
300.031
300.031
300.031
300.031
300.031
300.032
300.032
300.032
300.025
300.026
300.027
300.027
300.028
300.028
300.028
300.029
300.03
300.03
300.031
300.031
300.031
300.032
300.032
300.032
300.032
300.032
300.032