/*--------------------------------*- C++ -*----------------------------------*\
| =========                 |                                                 |
| \\      /  F ield         | OpenFOAM: The Open Source CFD Toolbox           |
|  \\    /   O peration     | Version:  2212                                  |
|   \\  /    A nd           | Website:  www.openfoam.com                      |
|    \\/     M anipulation  |                                                 |
\*---------------------------------------------------------------------------*/
FoamFile
{
    version     2.0;
    format      ascii;
    arch        "LSB;label=32;scalar=64";
    class       volScalarField;
    location    "./ITHACAoutput/true/6.2";
    object      error;
}
// * * * * * * * * * * * * * * * * * * * * * * * * * * * * * * * * * * * * * //

dimensions      [0 0 0 1 0 0 0];

internalField   nonuniform List<scalar> 
3200
(
-1.21469
-1.83386
1.0869
1.5406
0.993022
2.106
3.62951
4.74374
3.0946
4.42307
3.90312
5.16779
3.18144
3.44231
5.28323
2.0202
2.65182
1.77152
1.50661
-4.39658
-2.78316
-0.260494
-0.0404902
2.32371
1.6463
1.1689
2.57776
2.34914
3.63723
3.60827
3.70872
2.39192
3.73343
4.40854
1.35446
3.71277
0.440379
2.65249
-1.20501
-0.69535
-4.0038
0.0839952
0.0493202
2.5604
1.91286
4.46909
3.11925
0.585027
4.1831
0.88892
2.27069
5.15942
2.20434
2.95619
2.01305
1.92753
-0.0134376
1.42301
0.0288324
0.874175
-1.5209
0.688577
0.679213
0.545936
4.98017
3.81476
1.04075
3.92224
1.1439
3.17156
0.210673
0.500986
1.4895
1.3192
1.51057
0.867947
2.56493
1.76814
1.57896
-2.56337
-0.843517
-0.356077
0.719857
0.442003
0.571941
1.66377
1.39745
2.78675
3.99815
1.56009
0.110148
2.93391
1.96302
0.969063
3.93704
3.60824
2.3486
1.11424
1.09544
-2.72714
-3.80677
-0.928045
1.31806
1.05727
0.860435
-0.367081
0.87154
0.584993
2.20172
-1.08458
0.0732546
0.540852
3.07917
1.67443
-1.01808
2.84552
-2.52882
-1.40522
1.57858
0.171817
-0.743714
-0.807972
0.0786255
2.1557
1.74575
1.38989
-0.00855968
1.36058
0.637859
1.00097
-0.239044
0.148732
1.06758
0.219714
1.5328
-0.650322
-1.74071
-1.75525
-0.0451643
-1.0482
-1.53066
-2.29261
-0.722313
0.986633
0.662104
2.21863
0.727409
0.728892
0.596529
0.593831
-0.160668
0.727265
1.43355
2.56321
-0.171458
-0.543346
0.947403
0.787212
0.464579
0.265885
-2.26415
0.178775
1.07471
2.6427
2.20296
4.96805
4.38896
7.11809
6.60342
4.53348
3.95186
4.92178
1.60391
3.82267
3.05903
2.47144
3.39216
1.04765
0.202515
-3.80812
-3.63249
0.528334
1.21115
-0.183995
3.06066
0.31393
1.67486
0.239523
3.35391
0.014577
-0.0400937
3.5431
-0.261374
1.52838
0.845
5.76565
0.0866056
3.2191
-0.0831255
-0.354821
-1.28812
-1.10178
1.72547
-0.877105
0.696106
1.21109
2.46379
0.73543
1.67881
2.00458
2.16276
2.44016
2.15788
0.869172
2.99143
2.47199
-1.73004
0.938172
3.29405
-2.22781
-1.80722
-1.35311
1.83109
0.461885
1.84295
2.34665
-0.150666
3.86355
2.6099
1.81007
2.05786
0.958516
0.504488
1.05965
0.978106
3.41958
0.140017
0.534059
0.681205
-0.854004
-0.717
0.673319
0.485953
4.05495
0.739592
2.93631
1.31522
-0.19452
-0.434688
1.88832
4.60614
2.33887
2.0164
3.44829
2.91417
1.23529
0.376401
2.08887
-1.10911
-2.0415
-0.62458
-0.847702
1.53518
-1.2267
1.27297
0.384785
2.91399
-0.59101
-3.02631
0.584926
1.03962
2.18939
-0.0232862
1.39602
2.06278
1.62247
-0.444473
1.69319
-1.27387
-0.560919
-2.14426
-1.58505
0.0330893
-1.50741
1.39573
0.650861
-0.497821
2.39525
-1.1278
1.33409
1.04334
-0.493403
-0.298954
2.27882
2.25544
0.46049
0.338245
0.470842
0.213002
1.71725
-0.49783
-1.1685
-0.365433
1.47395
-0.504202
-0.04912
0.249063
-0.4084
-0.310659
-0.439696
-2.10434
0.117968
0.963867
-1.48681
0.516311
0.931101
-3.12707
-0.178239
0.313173
0.631764
-3.51301
-0.220397
0.488402
2.88817
4.83332
1.05365
3.50256
4.33395
3.40021
5.00994
3.64255
0.955523
4.23009
1.16263
4.57322
3.33806
3.43323
-0.321343
0.37721
-2.06471
-0.117145
0.27393
0.811788
1.05843
2.1663
2.58468
2.75368
4.15895
0.978937
4.22324
1.09536
3.09416
1.45538
2.30461
5.08893
4.15534
1.89706
0.977932
0.281293
-1.9291
-0.814597
0.896518
0.477315
-0.087897
1.92871
2.86649
1.64578
3.47176
4.02994
2.42522
1.23836
2.426
3.68904
2.28516
3.72581
-0.0913712
3.33288
1.6594
-2.8583
-4.45364
-3.78939
-1.26363
2.12565
0.724954
2.19467
0.522487
2.13674
2.50706
0.913906
2.4506
2.27604
1.64334
1.44061
2.25731
2.09217
2.57846
1.9605
0.881307
-2.57358
-1.17398
-0.776064
-2.19756
-1.85539
0.934038
0.970546
3.42162
3.50935
1.08278
-1.17935
1.70051
2.7628
2.39704
1.7641
2.17724
2.5681
2.073
0.440805
-0.742507
0.568075
-0.480447
-1.04772
0.462007
-0.251108
1.47601
0.0114594
1.28125
0.880248
-0.424801
-0.827208
0.345875
3.4258
0.667508
-1.41133
1.85638
3.05883
0.676796
0.869497
1.96997
-3.23942
-0.290895
-1.8164
-0.93982
1.35226
-0.239735
1.14871
2.56221
0.442035
1.49625
-0.111425
1.07652
-0.0499208
-1.8724
1.51765
-0.553554
0.347147
0.720529
-1.55727
-3.0407
-0.269011
0.181286
1.47973
-0.0119065
-0.441569
-0.209788
-0.622777
1.04663
-0.578597
-0.496647
2.96473
0.619309
0.426386
-1.72176
-1.80101
1.65008
-2.76977
0.468315
0.307256
0.114531
0.407294
0.394689
-4.24746
0.647095
0.831983
2.55383
2.02322
5.1452
1.702
3.6545
4.00867
1.9777
3.73948
1.0606
1.15687
2.485
0.364701
1.53067
2.1739
-1.87258
-0.609113
-2.84227
-4.35019
0.15701
-1.47297
0.1396
1.16449
0.222776
-1.46166
-0.12851
2.50573
0.363462
-0.157485
0.546676
0.189244
-0.1112
-0.263743
3.86717
-0.523078
1.32799
0.185662
-0.666124
-3.57972
-2.55958
0.371214
0.645603
0.367092
2.80274
0.658571
0.896494
0.658855
0.286643
1.52796
-0.51468
2.64906
2.95314
2.96495
1.93141
1.27354
0.282543
-0.52616
-3.38744
-2.12508
-1.11537
2.24749
-0.48254
0.597572
-0.215035
1.13543
2.46341
2.60826
1.20433
2.61058
3.40388
1.89537
-0.85467
2.499
0.0572492
1.68327
1.62841
2.30294
0.0948028
-2.06786
-0.0684717
-0.302976
0.545295
1.77262
-0.673355
1.74139
-0.527758
-0.130123
2.87171
0.939198
1.79852
1.55668
-0.18719
3.67012
1.21124
-1.8024
1.94365
0.0424976
-1.93283
-2.20821
-1.17588
0.496612
1.58339
-0.332288
1.95524
2.20141
-1.65494
0.412511
0.0929057
1.73996
0.398362
1.64298
1.89489
1.32207
0.230095
-0.0432854
0.683983
-0.801058
-4.87202
-1.70303
-0.240736
-0.814574
0.205009
1.53274
-0.7147
-2.75206
-0.254638
0.102082
-0.220328
1.61329
1.18092
0.650058
0.308532
-1.77934
-0.871203
-0.106665
-1.17329
0.123741
-3.3
0.0386636
-0.368713
1.84261
-0.869975
0.442682
0.38384
0.279025
1.10786
0.541141
-0.284821
-1.40123
0.355818
-0.133981
0.710057
-0.0124388
-1.46264
-0.720973
-0.595366
0.638544
-0.48681
-2.33591
-1.70055
2.69112
0.861346
2.3785
2.49601
2.43595
2.64925
2.00947
0.74568
0.228754
-0.680808
1.38171
2.35904
1.25349
1.57366
1.94988
1.1477
-0.707839
-3.82771
-4.29677
-0.396516
-1.50285
4.3592
1.94221
0.522179
2.66245
1.09288
0.333983
1.3011
2.59899
0.954283
1.00659
0.590848
0.979021
-2.93083
2.06273
0.813423
-1.25226
-3.08477
-2.31726
-2.41872
2.43159
1.96968
0.779988
1.98167
2.24256
0.229762
1.78474
0.539445
2.2753
0.722787
2.38727
1.05574
0.28461
1.9176
3.38206
-0.253243
-2.36725
-0.371936
-2.82477
0.336972
0.318943
0.45028
0.978404
2.98839
2.31254
-0.0887961
1.69219
-1.60191
1.15225
-0.164696
0.33682
1.46627
1.20021
0.449265
1.5976
0.632596
0.217893
-3.50471
1.39889
-0.631665
-1.45653
-1.06266
-0.324005
1.63144
4.09068
2.01471
0.0455023
-0.210567
-0.372096
1.08014
0.546562
-1.92082
-1.58385
0.763212
-0.431371
-0.420771
-0.997801
-0.548285
-0.0579574
-1.28311
-0.256321
1.25621
1.51778
2.0798
0.287189
0.370861
0.108745
0.134434
-0.00662084
0.601916
0.680618
0.455287
-0.267275
-0.547276
1.97471
-0.635429
-0.740991
-0.517337
-1.07048
-2.21278
-1.81128
0.892721
-0.997142
0.241557
1.95326
-0.0612373
-0.997054
-0.0425661
1.07321
2.20218
-1.17595
2.27891
-2.3267
0.382531
0.315818
0.0417955
3.82831
-1.27744
-0.0679502
0.126879
-1.3087
-0.169778
2.25775
0.0137949
-0.222207
1.03652
-0.572408
-0.0496099
-0.884765
-1.67502
0.670493
-1.6851
0.891999
0.654158
-0.951713
-0.467161
0.397642
0.227328
-3.21307
-2.58134
-0.0320187
1.36248
0.604067
1.46594
-1.09654
2.17984
0.0340082
1.20445
-0.781784
0.158458
-1.64766
-0.165915
1.58873
0.547579
0.464574
-2.05443
-0.764805
-4.01831
-2.9882
0.0569049
-1.60147
0.263651
2.23169
-0.147115
0.376248
0.0245792
0.508791
0.191236
-0.0979304
-0.536799
0.584598
-0.964288
0.358924
-0.677949
0.204313
-1.09903
-0.0153135
-2.5855
-1.47663
-2.12536
0.0271088
1.26206
0.93088
1.9422
0.755159
3.89526
0.765247
1.80789
0.773174
1.90729
2.36236
0.272951
0.17076
1.48624
-0.429301
1.95805
1.3532
-4.2197
-0.777389
-3.50108
-0.0209291
1.79779
-1.25954
-1.76307
0.952586
1.71632
0.780296
1.15995
0.0150851
0.658313
-0.336901
3.22736
0.537311
2.96573
0.610736
-0.114548
-0.38692
-0.7622
0.694559
-1.27162
0.0466689
-0.428904
1.04994
-1.03555
-1.23717
-0.873276
1.25299
2.35053
-0.345879
0.854922
-2.8235
1.3726
1.6139
0.330708
-0.244486
-0.709088
1.11649
-1.81241
-2.13757
0.863274
1.31686
0.35543
-0.981835
-0.290398
0.0422224
-1.99036
-2.41968
-0.527808
-1.69135
-2.64717
-3.00441
-1.64878
-1.46146
0.90312
3.13279
0.405906
2.88412
-1.23895
-2.78057
-1.19373
-0.599135
-0.906406
-1.33077
0.389435
0.162222
0.280789
0.173388
2.6358
-0.246346
-2.22129
-2.55172
-0.306268
-0.570577
-0.0884884
1.97254
-1.59494
-0.42683
0.00829108
0.739708
-1.05806
-0.147738
1.7203
-0.686509
-2.15972
-1.52499
-1.15639
0.770696
-1.29146
0.576011
0.642699
1.74768
-0.832478
0.654758
0.390509
-0.0841342
-0.619688
0.0118017
0.548563
-5.2923
-1.52592
-0.379153
-1.51454
-0.0413721
1.17376
-2.28451
1.27557
-2.31327
-2.06214
-1.23163
-1.89045
-3.41711
-1.67496
1.4011
1.80513
0.313717
0.485211
-1.06738
-3.89161
-4.13792
-3.09313
-1.45297
0.0770388
-1.784
0.186905
-0.365821
-1.25172
-0.88946
-2.07867
-1.58728
2.3401
0.719164
-0.0760598
1.10621
1.2739
-3.07405
-2.34185
-0.588674
-3.94462
-1.96094
-1.74407
-2.93403
0.816301
0.621386
-0.465301
1.78646
1.41021
1.08979
-0.506222
-2.09772
-1.21946
0.600811
0.458072
0.255165
1.39689
0.30455
-0.792912
1.06069
-2.69016
-3.13627
-0.206536
-1.02881
-1.40613
0.735513
1.51503
1.69016
0.487341
-0.617616
0.512652
0.74222
0.0195046
0.807781
-0.773232
-0.899104
1.94405
0.907395
-3.22911
-0.769726
-2.9204
-2.41845
-1.70961
0.447354
0.373028
-0.458566
-0.481193
1.04053
1.61321
-0.461115
1.49644
0.34269
-0.169821
-1.48959
2.43375
-0.208389
-1.75293
1.92619
-0.345628
-0.584833
0.617196
-0.576603
-1.9362
1.07373
-1.75132
0.0800282
1.11277
-0.36381
-1.27125
-0.997386
-1.43231
-0.610783
-1.03037
0.0183386
-1.01067
1.25369
0.750454
0.260898
-2.14728
-0.48272
-1.58802
-1.9172
-1.77163
-1.42506
0.592553
-0.706114
-1.56562
0.066101
2.36605
0.566864
2.90349
-0.323247
-1.59229
0.362623
1.00236
-1.58078
1.50625
-2.44829
0.0315197
-0.0153486
-1.68015
-1.80197
0.222354
-1.94699
-2.59309
-2.63014
1.10546
-2.3798
0.536766
-0.179771
-1.3596
2.16855
-1.41773
-1.5908
-0.618492
-1.07075
0.436198
0.25526
1.30774
-1.99309
-1.2638
-4.75664
-3.18979
-2.06586
0.756574
-0.377267
0.835402
1.83516
-0.833299
-1.14193
-2.37165
-0.222459
-1.07402
-1.80997
0.666288
0.937101
1.91557
0.105934
-2.71539
-5.03976
-2.84031
-4.22575
-0.0349611
-0.195921
0.517926
-0.146553
-0.428997
0.707837
-0.227018
-3.89642
-0.236113
-0.336951
-1.61592
0.229238
-0.760755
-0.608295
-2.33929
-0.221147
0.502386
0.0143232
-5.29868
-3.20285
1.12231
-1.41575
-0.66831
0.0459778
2.10351
-0.792791
-0.321551
-0.573391
0.334599
-0.794797
-1.84111
-1.53903
-0.971016
0.391359
-1.13929
-3.72337
-0.255597
-2.43844
-3.52328
-2.87834
-2.11162
-3.85051
1.55624
1.50441
2.8569
-0.287451
-1.04066
-2.10393
-1.74128
-0.296442
0.988177
-1.22305
-0.279785
-0.0858546
1.38587
1.26395
0.33872
-2.06135
-1.44941
-0.865633
-1.28828
-0.952725
0.485229
-0.840103
-1.57611
-0.249995
0.759457
-0.508661
-1.11079
-1.14747
-1.47733
-1.08197
-0.375209
-2.86538
0.281454
-0.853214
-0.932652
-1.79556
-3.23367
-2.86017
-0.939753
-1.09334
-0.492199
0.776402
-2.03075
0.62377
-0.971238
-1.96637
-1.21279
-1.24473
0.848795
-1.35852
0.508704
2.05744
-1.08163
-1.55381
-1.0407
-2.79342
-1.33052
0.0548099
-1.83984
0.498651
0.520776
-1.42832
1.29175
0.774238
-0.102951
1.51557
0.370264
-2.49046
-2.1992
0.0142244
-1.21369
-1.75978
-1.08153
-2.33702
1.31591
-0.703905
0.435294
-1.03879
2.75149
0.693782
-1.19065
0.136374
1.3385
-0.0855847
-0.166535
-0.713772
0.0336696
-1.75018
0.291428
0.0778588
-0.862723
-1.35575
-0.0642398
-0.521774
0.456998
-0.995815
-1.64836
-4.7619
-4.59188
-1.30607
-2.30874
-3.98975
1.46553
0.204196
-1.94066
1.26093
-0.961076
-3.48604
-5.20117
-1.1699
-1.44362
-1.26906
-0.750073
-1.59245
-1.09824
-2.14126
-5.15127
-3.80239
-2.56347
-1.89022
0.232647
0.306914
0.347104
0.0569998
-1.17744
-2.01693
-0.217739
-2.86094
0.700054
-2.22507
-2.85891
-0.454404
-2.53253
1.10791
-1.92063
-3.60186
-3.45531
-4.17502
-2.22737
-3.81302
-0.585569
-0.0113446
0.171504
-0.195276
-0.808419
-2.12189
-2.93201
-3.29695
-1.89461
-2.34274
-1.24283
-2.02161
0.452345
-0.286144
-1.77949
-2.59823
-3.21663
-3.98188
-2.09136
-1.68218
-0.561411
-1.06588
0.827999
0.0989099
-1.60369
-0.73052
-1.71552
-1.27137
-0.977519
0.802206
-0.302163
-2.30409
1.78784
-0.559555
-2.58962
-2.70345
-2.57342
-3.33334
-2.00586
-1.77575
0.976326
-1.85289
-0.0536749
-1.33582
-0.313917
-2.15348
1.55408
-2.47986
0.503793
-0.977372
0.487252
-0.476171
0.911355
-2.09003
-0.540516
-0.729544
-3.34739
-2.13658
-0.210956
-2.3041
-0.148555
-1.07416
0.141
-0.942404
0.298866
-0.176322
-1.24199
0.743159
1.86533
2.0026
0.0831987
-2.22744
-0.532759
1.29618
-1.86727
1.58904
-2.21776
-2.06588
-1.82455
-0.43964
-1.27656
-1.41274
-0.920241
-2.19188
0.975576
1.77278
-0.784246
-2.27366
-1.19053
-0.401701
-0.700374
-1.9693
0.594603
-0.891746
0.212005
-1.47319
-0.143998
-0.472973
0.513803
-2.18928
0.400486
1.31174
0.207345
-0.327345
-0.316433
-0.651437
0.0644119
-0.775945
0.923207
-1.25797
0.318835
0.513965
1.4896
0.960478
-1.6358
-0.299066
-0.815218
-6.56478
-5.02989
-1.2202
-0.759928
0.932942
-0.0216059
-2.85503
-0.330111
-3.02133
-3.16715
-1.66292
-1.24937
-1.88539
-2.41445
-2.32759
0.313987
-0.880382
-1.41243
-0.599822
-4.65244
-2.71714
-0.432989
-2.778
0.11357
-1.55575
0.435994
-1.45059
-0.394346
-1.71397
0.201386
-0.198074
-2.82612
-0.146678
-3.31071
0.141384
0.69152
-0.129671
-1.60551
-0.420143
-3.9362
-1.75351
-2.30552
-1.39345
-2.32177
1.15277
0.967879
-1.23993
-2.06262
-4.26064
0.20294
-1.63948
-1.78178
-1.26016
-2.02205
-1.26877
-1.13809
0.0294994
-3.73751
-2.33334
-2.66009
-2.58911
-0.90257
-1.92002
0.944053
1.84568
0.339491
-0.909775
-0.0201785
0.509371
-0.963739
-0.817602
-0.508723
-3.81281
0.240886
0.227432
-2.43468
-0.662502
-0.296128
-1.30086
-2.80667
-3.83999
-0.678937
0.132018
0.00690857
-1.53907
-0.441032
-0.298214
-0.291551
0.12798
-2.61206
-3.23853
-1.98054
-1.40879
0.797614
-0.61203
-0.245547
0.0214737
-0.690673
-2.24419
-1.56967
-1.71805
-2.6365
-1.0292
-1.49221
-1.31685
0.133759
0.753549
2.07534
-0.878806
-0.814913
0.550808
-0.298424
-1.36885
-1.95853
0.687802
0.941152
-3.66515
-1.05744
-1.95083
0.0269896
-2.76882
0.31285
-1.5863
-0.429015
-0.60211
0.540854
-1.18612
1.32111
-1.65025
-1.02643
-0.560274
-0.442129
-0.637463
-2.66934
-0.0702114
-0.178469
-0.811024
-0.794073
1.11272
-0.542509
1.14982
-1.03749
-1.40381
1.95729
-1.41063
-0.202146
0.791576
-0.111265
0.433945
0.303106
0.234088
-0.859859
-1.23927
-1.86172
-0.527715
0.544356
0.282431
0.0786022
1.59748
-1.99547
-3.85865
-3.89993
-2.13063
-2.72932
-1.78013
-1.27122
-1.25227
-2.60984
-1.31701
-3.43005
0.346845
-0.625508
-1.87505
-2.46162
-0.835493
-0.853502
-2.11024
1.08898
-2.71845
-6.23975
-5.23428
-0.631338
-4.76949
-0.726137
0.445598
-0.332971
3.49937
0.10517
-0.768493
-0.677166
-0.852654
-0.221422
0.142558
-3.40887
-0.396553
-2.58228
0.465957
-1.38076
0.240112
-2.85543
-4.29592
-4.7033
-2.35616
0.340046
1.8776
-0.607066
-0.945405
-1.38555
0.333861
-2.16374
-2.69207
-1.33275
-0.197532
0.0900342
-0.437614
0.0413485
-1.61875
-1.2167
-1.6585
-2.30547
-0.844912
-3.30615
-0.598405
2.57894
-0.264896
-1.0313
-1.34009
0.125609
-2.84496
-1.75379
-1.62458
-0.452267
-1.17667
-1.9923
-2.65019
-1.25244
-3.7863
0.477801
-2.2002
-3.83022
-4.62794
-4.04459
-2.20223
0.393675
-1.48489
0.728281
-1.41547
-1.15182
-2.54584
-1.06882
-1.90953
-0.621761
-1.43268
-2.20767
-0.805735
-0.618004
-1.16438
-2.53685
-1.31456
-2.53941
-2.67822
-2.80643
-1.44648
-1.33665
-0.249488
-2.42617
-2.00629
-0.683978
-0.111603
2.46172
-0.158143
-0.49494
-1.28072
2.18931
0.0811373
-0.315567
0.0560078
-1.83488
-0.539897
-1.49747
1.39965
-3.0741
-1.9073
-0.550384
-1.28031
2.23809
0.92297
-0.162582
-2.50777
-0.636502
1.14067
0.196265
-1.48099
-0.365638
0.406167
-1.12076
-1.62676
1.06801
0.73343
0.497875
-0.809191
-1.2405
0.117102
-0.565711
-2.93352
1.84993
1.45064
-2.23331
0.140198
-0.184363
1.15087
-1.09593
1.02421
-0.557567
-0.65542
0.184187
0.103413
1.6448
1.50213
-0.97858
-4.49639
-1.1583
-1.65068
0.700519
-1.36344
0.561348
0.0202215
-2.51193
-3.03452
-1.91011
-3.51071
-3.74832
-1.30078
-1.68744
-0.30389
-0.796153
0.231339
-2.93337
-2.76848
-3.01757
-4.378
-4.10806
-2.50536
-2.07593
1.17026
1.22359
-2.10718
-0.167111
-0.158066
-3.98041
-2.95121
-3.49713
-4.38026
-1.50412
-0.0241009
-3.90357
1.29583
-1.21195
-2.57288
-5.19494
-5.12816
-2.81266
-0.687672
-4.19255
-0.126619
-0.0777165
-0.428491
-0.353961
-1.98884
-0.267635
-2.40172
-0.00548651
0.030387
-0.386047
0.789483
0.0611492
-2.83154
-2.47208
-0.911609
-2.98154
-3.30767
-1.29546
0.71171
-3.19286
-1.7925
-1.30168
-1.0901
-3.15286
-2.53793
-3.01598
1.38067
-0.951776
-3.55795
-0.684499
-1.45921
-3.76373
1.26327
0.393774
-0.399993
-1.31062
-2.47584
-2.92621
-2.04121
-0.889852
1.49018
0.515002
1.12591
-4.35713
-1.06139
1.23601
-2.31163
-0.809789
-1.88662
-0.306503
-1.02264
-0.190583
1.10899
0.180143
-2.76029
-2.48613
-0.515853
-1.73104
-2.16405
-2.48872
0.0389049
0.438778
-0.279929
0.979177
-2.26662
-1.50794
-1.50723
-3.05268
-1.51419
-1.14233
1.64287
0.025443
-1.73806
-1.43515
0.445002
-1.06226
0.861668
-2.15262
-0.0612267
0.503795
0.491926
0.327423
-0.224423
-2.79907
0.382403
-1.72726
-1.96414
-0.424248
0.51535
-1.48259
-0.284617
0.91574
-0.0368318
-1.2616
0.389919
0.628672
0.888208
1.50634
0.8502
-0.490685
3.6763
-1.58927
1.39716
-0.763975
-1.36337
1.22759
-0.694379
1.16104
-1.12156
0.614726
-2.99491
-2.19712
0.0282975
-1.37674
-0.623456
0.388161
-4.98703
-3.24961
-3.73983
-2.65025
-1.95349
-1.31142
-0.418078
0.72736
-2.446
-2.35021
-2.07794
-2.87481
-0.665345
-2.64889
0.333049
-0.486339
-1.36891
-0.21719
-2.62448
-3.59217
-6.09966
-0.674692
-0.997943
0.0198318
-1.13785
-0.474175
-0.423691
0.118401
-1.64963
0.315868
-0.37587
-1.60557
-0.0700182
-1.44978
-0.121653
-2.16252
-0.740038
0.593391
-0.0089833
-3.29223
-3.44197
-2.40878
-2.32183
0.200811
-0.0206072
-0.130158
-0.286578
0.127657
-4.79216
-1.57814
-0.358524
-4.33029
-2.54005
-2.01009
-0.22462
-1.32573
-1.07222
-2.16737
-0.643611
-2.3939
-2.64432
-0.313076
-3.37041
-1.13232
0.415068
-2.51297
0.0805197
-2.7154
-4.23817
-2.06453
0.480491
-2.81036
1.33588
-2.6574
-2.47292
-0.0706014
1.21843
-1.82902
-2.74425
-1.0542
-3.04048
-2.40089
0.268898
-0.169342
-0.478909
-0.720445
-0.0495735
-1.47817
0.036861
-2.05494
-1.20756
-1.35047
-1.21087
-2.76833
0.483944
-0.797882
-0.54956
-1.01567
-1.37166
-1.77559
-2.23167
1.77823
-2.69251
-2.37307
-4.00675
-1.18297
1.08066
0.994621
-1.22702
-0.168827
-0.950238
0.0335205
-0.157429
-1.83278
-3.34268
-0.179681
-1.21131
-0.101875
-2.04748
-2.27893
-2.39713
0.00642553
-1.00923
0.468057
1.63216
-0.26919
-2.0117
-1.41296
-0.171615
0.770754
-0.147427
2.10533
-0.506421
-2.04174
1.07883
-0.0669412
-0.106012
-1.01368
-1.11754
0.249914
-1.41098
0.947069
1.04409
-1.59888
0.140127
-0.530753
-1.80464
0.0447362
-2.88519
-0.801257
1.79302
-0.791457
-0.894448
-0.764315
-2.1188
-1.13265
-0.872832
1.67104
1.01877
-1.01567
-4.39233
-2.96156
-2.95911
-0.473536
-0.260089
1.19001
0.784529
-1.47695
1.18063
-3.58746
-5.54224
2.84764
-0.0719655
-2.59374
-0.926399
-1.36282
-3.76097
-2.15553
-2.00466
-6.82905
-5.54609
-2.2087
-1.63157
-2.96202
-0.0171283
-0.938273
-2.01531
0.817689
-1.4429
-2.17565
-1.30149
-2.26217
-1.11194
-2.11965
-2.71903
-0.936162
-1.26422
-1.9007
-3.93383
-1.88311
-4.04972
-3.09092
-2.13468
0.792056
0.146351
1.60114
-2.22944
-1.32549
0.283846
0.202831
-2.32273
0.784986
-3.23406
-1.09405
-2.35488
0.757068
-0.152034
-1.86991
-1.20814
-2.22499
-0.963919
-2.80775
-1.91031
-0.0346846
1.82119
2.19091
-0.757656
-0.433998
-0.0448677
-1.58543
-3.49333
-1.4418
-0.924593
-1.1415
-0.0621563
-0.015094
-0.803914
-1.86436
0.0378769
-2.92715
-0.199576
0.31798
-2.98804
0.384315
-0.771043
-1.96581
-0.0376916
-0.978191
0.936286
-1.05828
-0.865837
-0.948884
-0.0231298
-1.58823
1.19506
0.801133
-1.8184
-3.68424
-1.08272
-1.90176
-1.97192
0.588834
-1.33235
-1.52988
-0.348507
0.0167042
0.488553
0.21338
-1.72959
1.0815
1.06836
-0.961462
-1.16761
-0.117738
-1.93008
-0.14207
-1.40205
-0.929978
-1.94969
0.0675511
-2.32837
0.47353
0.0130698
-2.19349
-2.95545
-0.919453
-0.592158
-1.05144
0.156544
-0.870297
0.175291
0.0992753
-1.02529
-2.05761
1.73112
-0.31662
-1.22968
-0.46791
-1.27688
-0.7878
0.825908
-0.828672
-0.472099
0.508912
-0.491981
-0.713731
-1.34824
-1.30045
1.06948
-0.260154
-0.0900658
0.681319
-0.676383
0.851267
0.999004
-1.26868
1.97414
0.333074
-0.174953
-0.491603
-3.85109
-4.449
-2.53361
0.0585161
0.833639
0.523582
1.02625
1.2069
-0.59704
0.233843
1.18106
-0.581907
-1.48426
-0.734428
0.898997
-0.735673
3.2169
-1.64797
-3.95785
-2.20355
-2.23398
-0.607832
0.117188
-0.688634
0.337549
-0.489675
1.38487
-0.342252
0.548097
0.0881715
0.0411949
-1.78091
0.807981
-1.57157
-0.284306
-0.406276
-0.310095
-1.04996
-0.0184447
-2.38614
-2.22092
-4.30102
-1.25873
-1.01099
0.8131
2.15329
0.348619
0.696711
-0.625727
-0.0964261
1.45875
-0.793807
-0.689822
-1.5537
-1.13895
-2.18345
-0.513483
-1.49677
-2.89146
-2.77339
-1.31052
-1.09639
-1.38726
0.822156
0.604562
-1.87292
-0.0651279
-0.326223
-1.02001
-0.11176
-1.46032
0.57033
-2.59951
-0.0757039
-2.0331
0.675323
-0.925987
0.650742
-1.0342
-1.10203
-0.98396
0.424421
-1.94969
-0.137593
-0.0971593
-0.776068
0.878903
1.39757
-1.27664
0.490949
-0.0108559
-0.489248
0.560087
0.0098455
0.830054
-0.257976
-2.6264
0.480468
0.136523
-1.77966
-2.14888
-2.41308
-0.642359
-1.48842
0.0835143
-0.791986
2.37259
-0.458229
1.97321
-1.22621
2.97533
0.64605
-1.90224
0.290091
-1.25789
0.610754
1.50604
1.73862
-1.75995
-1.99279
0.521556
-1.18224
-1.91324
2.2427
0.42926
-1.00488
1.97935
-0.185142
-1.82383
2.21109
-0.408944
-0.354349
0.9277
-0.919965
-1.44721
-0.420085
1.51732
-1.13372
-1.00274
-0.492123
-0.851196
-1.32265
-0.917396
1.04953
-0.492398
0.00216889
0.223333
0.738412
0.0815341
1.55614
0.206777
-0.789655
1.45274
-1.34989
-0.844682
-1.09749
0.521699
-0.204387
0.256987
-1.37536
-2.25768
-2.41059
-0.309871
0.377917
-0.322953
3.90791
1.70876
2.69788
-0.711483
-0.441308
0.446662
-1.07833
1.29738
2.07566
1.84138
0.430016
0.199776
-0.00619561
-0.57232
-0.358472
-3.74831
-2.10676
0.479425
1.87983
0.215757
1.85563
-0.927671
-1.29969
-0.519186
2.02745
0.530825
0.113186
2.68202
2.63906
-0.972781
1.70555
1.39901
1.62505
-0.978618
-2.75848
-2.6845
0.558882
-1.22768
-0.708084
1.72282
0.792591
0.829842
-0.389627
3.73128
1.35601
-1.68074
0.240399
2.40889
0.284073
2.79232
0.152958
2.32695
-0.012113
-2.56489
-2.83142
0.910658
-1.48415
1.875
0.0898665
-1.57829
2.40344
2.42447
-0.666598
-0.58706
-0.79298
-0.816201
3.56372
0.355605
1.64329
-0.89081
-0.325471
0.374038
-2.29205
-1.59647
1.01302
0.672495
-0.98762
-0.213435
3.55399
-0.156765
-1.0706
-0.461876
-2.45377
-1.33232
-1.97772
-0.197301
-0.289879
-0.39434
0.63983
1.13645
-0.361176
1.57892
1.68546
-0.275587
-1.64635
-1.92707
-3.54917
0.0988123
0.353808
2.80578
-0.703676
1.1063
-0.622136
2.00278
-0.0576993
0.283932
0.477699
0.045964
1.5474
0.293262
-1.37557
-2.01482
-1.53176
0.811376
-2.66897
0.832153
-2.67815
-1.07902
1.44918
-0.261017
-0.873832
0.714069
-0.474851
1.15506
1.31126
2.6756
1.61512
-0.0813012
-0.565872
1.06644
0.475282
2.46641
0.663354
1.15355
-0.948133
-0.105395
-2.5192
0.376814
0.599191
-1.13178
-0.846213
0.53408
1.04976
-1.17751
0.732687
0.755961
0.0708801
-0.296995
-1.60209
0.878382
-0.73289
-0.6891
1.91383
-0.310274
-0.970475
-4.50355
-2.28395
-0.572761
1.31928
0.127887
2.4162
2.20486
3.02301
1.13061
0.995358
-0.184886
2.25894
2.16417
0.787592
3.18816
0.900188
2.27406
0.859345
1.72207
-1.08565
0.219878
-0.150494
-0.694711
-0.224454
1.36196
0.248673
2.57849
0.393169
0.0776178
0.582304
-0.430982
0.51078
0.562769
0.742086
0.432331
1.88099
-0.141456
1.90986
-0.0289943
-1.92463
-0.961849
-0.551286
1.7941
1.82325
1.40566
1.65149
1.4091
2.65972
0.826972
-0.240928
1.37172
-0.0295687
0.635337
-0.738492
2.49617
2.03232
1.30378
-0.412816
0.408485
-1.39396
-1.64728
-1.64564
-0.483384
1.32819
-0.121779
1.56013
1.69321
1.42525
2.70571
1.94813
-0.154472
0.273207
2.25321
1.71392
0.925591
2.33917
0.184034
0.209009
0.841366
-0.768031
-1.04638
-1.31244
0.754298
-0.361969
-0.216161
0.519207
1.33602
-0.0284372
-0.847011
0.867212
0.481059
1.80025
-0.157231
3.13171
1.18712
2.06055
3.40947
-0.0109699
0.734322
-0.569877
-2.852
-0.995782
1.50977
-0.753723
-0.478687
0.177504
-1.16058
-0.143513
0.660032
-0.610978
1.44567
0.0543099
2.73408
1.04207
2.84619
-1.55191
1.76243
0.932791
0.840174
0.360707
-0.945558
0.0250008
-1.41529
0.0822398
-2.51816
-1.76909
0.85564
-0.165073
-1.42786
-0.680737
-0.100443
-0.874504
-0.112297
-2.56977
-1.90229
1.43307
-1.28127
0.415762
0.214117
0.816932
-0.583744
1.56696
-0.439009
-0.648558
1.19067
0.512373
1.77035
-2.71594
1.27582
-0.0443821
-0.67748
-0.0180224
-0.251662
-1.86985
1.63575
-0.115518
0.377878
-0.242504
-0.659056
-1.92263
-0.804646
-0.577089
0.635024
2.7927
3.30565
2.62617
3.9134
3.3016
4.97767
1.54374
0.219303
2.16897
2.35631
4.1499
3.11873
2.42835
1.86533
2.5035
0.462402
-2.48762
-3.64693
1.07021
1.46498
2.47095
1.18689
4.78147
2.03443
1.63963
0.731701
0.110226
2.17329
4.04499
1.50217
3.88455
3.83272
3.26692
1.36089
1.52878
1.73496
-2.09931
-0.624238
-0.745314
0.458825
3.34952
1.23232
1.55155
1.8649
1.58514
0.915452
1.54594
3.45279
1.21739
1.02861
1.06083
2.22674
1.47466
3.00066
1.77602
-0.567118
1.08344
-2.53844
2.94551
0.636209
4.14401
1.28212
1.73974
0.824671
2.23244
0.521086
-0.206557
0.0558518
1.50097
1.81424
-0.690891
2.79208
1.4377
2.43367
0.897084
1.29196
0.0199919
-2.89891
1.61129
-1.4494
2.34114
1.61983
0.758316
-0.834146
-0.886936
1.71892
2.98973
0.58491
1.03518
0.988754
3.47409
-0.912583
0.830086
2.08573
2.48825
1.17081
0.417116
2.49092
-1.05369
0.595828
1.23918
0.736208
-1.58208
0.481388
-0.239435
1.4811
-0.973041
-1.46572
2.55424
0.192506
1.79254
0.676264
1.02586
0.976979
-0.111053
0.376178
2.71791
-0.344437
-1.1349
2.15454
-1.06348
1.14051
0.494021
-1.0563
0.405345
1.3075
0.612863
-0.4481
1.48649
-1.4784
0.819516
1.43606
-0.531062
0.642095
0.363207
3.13771
-1.64152
1.89274
-1.82397
-0.0759966
-0.710944
-1.28709
0.949887
-1.7468
1.05285
-0.575
0.17231
0.470771
1.19014
-0.0155073
2.18552
1.03025
0.721902
2.10785
-0.336675
3.2018
-0.270109
2.64769
1.97219
2.49382
2.5832
4.92319
2.76793
4.05045
2.27678
2.66311
3.48028
5.96368
4.58568
3.2759
7.85741
4.95761
3.69635
4.50768
3.62796
2.77234
3.14798
-3.87113
-0.0437085
1.11284
0.474596
2.91292
0.492573
6.19338
-0.000357052
3.81788
0.668005
0.127328
3.67829
0.328385
3.59659
0.709253
4.0828
-0.0378249
3.43394
0.0880136
2.55269
1.85513
0.788264
-0.32565
3.53903
3.0241
2.22087
1.75911
2.7607
4.90954
3.95266
1.99753
2.61426
4.56798
2.79085
3.10376
1.4135
2.73591
1.42898
0.759996
0.322133
1.16056
0.282879
2.04733
1.60255
1.72497
1.24637
6.21436
0.382688
3.41241
1.55057
3.66335
1.22788
4.77092
2.67358
2.25364
4.10042
0.146737
-0.000816459
-1.06445
-1.12219
0.263815
1.55885
0.239746
-0.161675
1.88143
1.48782
2.34915
1.08649
1.38693
3.63262
2.11374
1.58852
2.45828
3.96061
1.62982
2.68137
3.23637
0.217841
-0.427942
1.96261
-0.286795
1.90921
0.698715
0.874202
3.17987
0.180253
0.296405
2.89752
1.1222
0.0739997
0.950411
1.35115
1.76555
1.84852
0.331209
1.99296
0.440811
-0.094806
1.50628
-1.17845
-0.675631
-1.47118
-0.572338
1.04385
-1.2049
3.10944
0.0641285
1.25412
-0.857758
-1.4302
3.51004
0.350106
2.25653
1.87787
2.16818
-1.09983
-0.90567
0.498121
-1.65739
1.93058
-1.51913
0.556192
0.693625
0.444848
-2.4585
-0.843089
-1.85156
-1.15793
2.50836
-1.06228
-0.0761314
1.94704
-0.0454434
-0.338093
-1.22359
-0.208456
0.0554124
0.788178
-1.6491
-3.52174
0.684533
1.9959
3.86833
3.05932
4.94672
5.6381
4.12843
4.08589
3.02596
4.70871
4.87018
5.33657
6.0441
4.54887
2.97708
6.71842
3.39419
1.8237
3.217
5.02754
-0.87837
0.338792
1.7844
4.23697
3.2975
5.2388
6.89885
5.39301
4.27683
6.65571
3.97075
4.02759
4.14468
1.35729
5.30477
5.2064
4.82664
3.08702
1.40743
1.46552
0.883972
1.67481
1.69448
1.99496
3.02947
2.21505
3.36764
4.76793
2.89122
4.21153
0.857435
3.71814
3.27039
3.25246
2.9143
2.98798
3.98881
3.32765
1.53599
1.86507
0.745894
1.10449
1.93109
3.60963
2.82485
4.20324
1.79346
1.93852
2.74252
4.46032
4.57671
3.11466
3.54012
4.36609
4.04817
3.30533
3.2756
2.44508
2.60819
-1.0968
0.996858
1.85387
0.785102
1.80201
0.192458
2.10109
2.61099
0.819158
1.30712
2.55264
0.0263581
3.44846
2.00962
1.30002
2.37795
3.39304
0.907625
0.039763
-0.481937
1.26818
2.42777
-0.692784
-1.20309
-0.322766
2.58584
1.45501
0.39983
1.48783
2.52682
2.49839
-0.973751
2.46642
0.170271
2.1879
3.84754
2.11951
1.92313
1.79995
3.15815
0.937713
-1.94815
-0.0226622
2.04866
2.01351
1.86636
0.2466
2.40741
2.19236
1.47838
3.21051
-0.554393
-0.408851
-1.6418
-0.267798
0.280494
1.14583
0.475947
-1.29316
-0.641436
1.31464
1.07136
2.59874
-1.325
0.405796
-0.479738
-2.48101
-0.594793
0.411436
-0.908086
0.0267571
1.24127
0.473053
-0.833448
-0.347918
-0.288032
0.687735
-0.603696
1.03676
-0.859379
-0.97047
)
;

boundaryField
{
    hotSide
    {
        type            calculated;
        value           nonuniform List<scalar> 
400
(
0.0587905
-0.987958
-2.23137
-2.95754
-1.03482
-1.89779
-3.95967
-3.40336
-3.38452
-5.1597
-2.42211
-3.02451
-3.4758
-2.83762
-2.24867
-0.603243
-2.79271
0.967035
4.4847
2.5914
-0.518952
1.49606
1.1017
1.97652
-0.361149
-1.22917
-0.158014
-1.80298
-3.18281
-3.59501
-2.43552
0.339559
-1.71426
-1.38453
-2.82598
-0.737173
-0.555669
1.2106
3.82387
3.9162
2.44663
2.43643
1.85417
2.20397
4.07165
1.35961
1.02633
-0.643495
0.136432
0.245935
-0.63713
-0.125873
-2.1796
-1.35919
-0.88958
1.38277
1.1731
2.43876
4.36013
5.80196
2.94783