/*--------------------------------*- C++ -*----------------------------------*\
| =========                 |                                                 |
| \\      /  F ield         | OpenFOAM: The Open Source CFD Toolbox           |
|  \\    /   O peration     | Version:  2212                                  |
|   \\  /    A nd           | Website:  www.openfoam.com                      |
|    \\/     M anipulation  |                                                 |
\*---------------------------------------------------------------------------*/
FoamFile
{
    version     2.0;
    format      ascii;
    arch        "LSB;label=32;scalar=64";
    class       volScalarField;
    location    "0";
    object      stateMean;
}
// * * * * * * * * * * * * * * * * * * * * * * * * * * * * * * * * * * * * * //

dimensions      [0 0 0 1 0 0 0];

internalField   nonuniform List<scalar> 
3200
(
350.709
352.001
349.939
350.422
351.934
351.768
351.118
350.741
352.928
351.884
352.404
350.855
352.304
351.306
348.591
350.907
349.311
349.254
348.66
353.891
345.701
343.747
344.269
342.715
344.227
345.523
344.87
345.736
344.912
345.186
345.085
346.157
344.352
343.039
345.338
342.16
344.599
341.577
344.692
343.613
340.337
336.722
337.381
335.555
336.907
335.043
337.031
340.103
336.896
340.397
339.015
335.92
338.484
337.194
337.499
336.892
338.128
336.007
336.777
335.459
331.262
329.433
329.952
330.644
326.787
328.517
331.812
329.371
332.468
330.609
333.57
333.111
331.804
331.534
330.821
330.899
328.625
328.863
328.543
332.304
323.988
323.792
323.111
323.824
324.142
323.489
324.161
323.112
322.149
324.718
326.168
323.213
323.936
324.589
321.216
321.106
321.917
322.717
322.341
325.871
320.35
317.677
315.713
316.284
316.801
318.342
317.392
317.922
316.482
319.863
318.705
318.143
315.428
316.59
318.993
314.815
319.87
318.436
315.17
316.371
310.682
310.869
310.151
308.26
308.863
309.407
310.979
309.755
310.585
310.278
311.518
311.074
310.048
310.75
309.264
311.259
312.157
311.985
310.106
310.986
304.863
305.666
304.151
302.505
302.894
301.4
302.95
302.997
303.165
303.187
303.942
303.035
302.292
301.114
303.79
304.099
302.545
302.642
302.908
303.066
351.923
350.148
350.104
349.463
350.858
349.029
350.472
348.472
349.517
351.867
352.448
351.198
353.986
351.038
350.938
350.59
348.714
350.131
350.124
353.467
346.693
343.098
343.15
345.347
342.929
346.486
345.871
347.936
345.28
348.861
348.916
345.091
348.437
346.018
345.955
340.224
345.076
341.142
343.709
343.416
337.742
338.025
335.817
339.097
338.222
338.392
337.769
340.029
339.472
339.35
339.192
338.711
338.606
339.364
336.612
336.446
339.95
336.604
333.629
338.682
331.647
331.571
328.891
330.815
330.004
330.06
333.073
329.491
331.061
332.027
331.779
332.712
332.851
331.862
331.429
328.427
331.137
330.188
329.537
330.694
323.938
322.838
323.416
320.278
324.037
322.275
324.296
326.143
326.628
324.434
321.716
323.854
323.932
322.163
322.297
323.542
323.957
321.813
324.62
325.262
317.222
317.651
315.547
318.616
316.433
317.631
315.388
319.133
321.743
318.224
317.769
316.528
318.565
316.906
315.953
316.084
317.833
315.389
318.077
317.158
312.115
311.678
310.228
311.952
309.239
310.171
311.491
308.743
312.37
309.964
310.255
311.735
311.437
308.714
308.567
310.175
310.107
309.79
309.88
308.254
303.841
304.551
303.805
302.027
304.069
303.677
303.436
304.141
304.08
304.227
305.891
303.651
302.769
305.172
303.112
302.634
306.628
303.618
303.07
302.711
353.504
350.868
350.997
349.508
348.498
353.193
351.588
351.468
352.918
351.581
352.948
355.362
351.572
353.928
349.674
349.993
348.963
351.806
350.271
352.056
343.465
343.63
343.814
344.356
344.058
344.431
344.992
344.201
347.827
344.819
347.947
345.712
346.905
345.441
341.927
342.069
343.517
343.648
343.623
345.277
337.511
336.261
337.289
338.52
337.187
336.92
338.756
337.448
337.267
339.071
340.258
338.871
337.231
338.117
336.06
339.207
335.099
336.107
340.016
341.15
333.827
331.674
328.78
330.725
329.814
332.035
330.923
330.976
332.877
331.502
331.677
332.148
332.042
330.803
330.465
329.431
329.489
330.025
332.984
331.212
324.151
325.858
325.9
323.534
323.932
321.906
322.21
324.965
327.465
324.711
323.649
323.889
324.284
323.542
322.76
322.83
324.027
324.788
323.092
323.855
317.755
316.447
317.435
316.009
317.785
316.819
317.499
319.038
319.611
318.528
315.448
318.116
320.024
316.523
315.041
317.119
316.616
315.214
320.148
316.998
311.853
311.097
308.97
310.743
309.541
308.31
310.597
309.684
311.394
310.259
311.386
313.155
309.662
311.593
310.525
309.969
312.06
313.363
310.426
309.856
301.885
303.417
303.902
303.731
304.206
302.597
304.28
304.245
300.817
303.181
303.374
305.504
305.549
302.051
306.414
303.115
303.214
303.345
302.998
302.97
354.737
350.485
351.116
350.28
351.718
349.483
353.741
352.473
352.617
354.91
353.149
355.565
354.971
352.958
354.263
352.21
350.66
353.821
351.741
353.332
348.13
344.166
346.5
345.653
345.415
347.123
349.513
348.772
346.567
348.937
349.457
348.526
348.454
348.162
347.61
342.712
346.316
343.699
344.137
344.446
340.641
340.072
337.734
338.107
339.05
337.262
340.002
340.265
340.864
341.427
340.186
342.038
338.512
337.708
337.1
337.486
337.479
337.822
338.038
340.448
332.462
331.814
328.936
332.195
331.657
333
332.136
331.217
331.368
332.928
331.521
330.572
331.785
334.126
330.286
332.198
330.029
329.555
328.396
330.242
325.675
323.953
324.563
324.127
323.321
326.179
324.143
326.729
326.561
323.68
325.613
324.632
324.644
326.071
321.836
323.883
326.474
322.316
323.843
325.54
319.081
318.246
316.841
316.048
318.265
316.272
316.296
320.378
318.474
318.881
317.234
318.489
317.08
316.602
316.905
317.703
317.674
316.654
317.871
321.745
311.839
310.495
311.229
310.386
309.239
311.663
313.862
311.501
311.243
311.616
309.783
310.164
310.596
310.801
312.727
311.643
310.698
311.587
310.13
313.436
303.359
303.806
301.648
304.42
303.168
303.286
303.445
302.662
303.262
304.105
305.221
303.447
303.904
303.014
303.682
305.074
304.271
304.086
302.798
303.885
353.494
353.481
349.879
352.563
351.918
352.651
353.489
353.929
355.043
356.555
357.072
357.733
355.196
353.566
353.894
352.723
351.474
351.422
352.488
354.986
348.655
345.282
347.069
341.946
345.118
347.274
345.807
347.941
349.109
348.357
347.059
348.489
348.027
347.878
346.817
349.991
344.242
344.753
346.137
347.443
339.867
340.406
336.129
337.215
339.044
338.464
338.772
341.261
340.052
341.479
339.743
341.114
339.104
339.959
340.161
337.906
335.803
338.814
340.354
337.922
333.561
330.751
331.237
331.616
331.61
330.108
331.248
334.04
332.541
335.983
333.229
334.398
333.614
332.095
331.896
332.139
330.468
330.923
330.87
334.241
322.518
324.819
326.007
326.01
325.677
324.117
322.018
324.397
326.585
326.957
327.118
325.551
325.865
328.03
327.332
324.59
325.378
324.971
325.185
324.465
317.153
318.569
317.8
316.572
316.6
316.32
318.371
318.503
318.921
318.978
319.119
318.428
318.193
318.203
318.667
318.665
315.853
318.179
318.027
317.612
311.339
312.596
312.35
309.816
311.88
310.81
309.254
311.398
312.427
311.523
310.407
309.228
312.513
308.928
313.379
310.5
310.393
310.497
306.555
311.546
303.511
303.354
304.842
303.76
301.39
303.691
303.979
302.763
304.404
303.898
304.733
305.507
303.13
305.442
302.813
302.994
304.542
304
303.083
303.216
355.212
355.179
353.387
352.81
354.4
354.345
357.644
354.984
357.575
356.639
358.625
357.451
358.812
356.713
354.222
354.456
353.707
355.409
353.363
356.017
348.073
345.535
347.847
346.689
345.441
348.518
348.633
349.516
349.417
349.938
350.227
350.463
348.956
349.973
348.012
348.351
346.749
347.345
345.607
347.67
339.642
340.71
339.109
338.471
339.411
338.99
340.716
338.026
341.481
340.609
341.644
340.339
339.559
341.198
340.761
338.856
340.162
337.178
337.232
342.385
332.016
335.078
332.047
330.716
334.272
335.258
332.982
332.587
333.788
333.548
334.693
333.91
334.64
330.708
332.958
330.046
331.903
332.141
331.964
332.001
323.613
325.84
324.869
325.724
324.632
327.094
327.637
327.558
325.639
324.649
327.346
326.037
329.509
325.027
324.444
325.351
325.539
325.625
323.452
326.12
319.512
316.694
316.489
317.722
319.335
318.911
318.823
321.059
321.637
319.822
320.985
321.864
322.073
320.514
320.082
317.45
314.944
317.4
314.673
318.613
313.218
311.741
311.295
311.764
312.355
310.796
311.17
311.173
311.37
308.953
311.835
313.764
314.006
311.638
311.756
311.112
308.885
312.291
310.974
310.429
302.759
304.593
303.733
301.92
304.382
305.909
305.324
304.996
303.098
305.176
303.309
303.226
302.092
304.631
303.094
303.304
303.724
304.205
303.523
302.95
358.306
355.113
354.687
356.599
355.911
355.455
359.605
356.62
360.624
360.591
359.761
360.201
361.313
358.995
355.228
354.065
354.77
353.823
354.654
356.906
350.102
349.541
348.524
347.665
350.207
348.893
350.044
351.428
351.424
352.802
352.31
348.195
349.457
349.754
347.974
347.149
350.816
349.413
347.037
349.909
340.868
341.053
342.768
339.585
340.356
341.998
340.252
341.048
341.672
343.427
345.019
343.981
341.857
341.58
341.278
339.58
340.096
340.627
338.248
341.597
334.982
332.376
333.626
334.466
332.795
332.471
332.709
334.255
335.608
334.607
334.378
334.97
333.934
335.172
334.885
331.587
332.153
335.826
332.939
334.766
327.198
326.738
324.913
325.347
326.545
326.92
325.719
325.415
327.681
325.825
326.978
327.39
328.518
324.326
326.647
327.839
323.794
325.706
325.613
324.163
318.287
319.822
317.049
320.131
318.562
317.781
319.487
320.585
320.448
320.955
320.134
320.481
319.296
320.134
317.64
317.892
318.119
320.27
318.369
319.298
312.556
312.516
312.311
310.447
311.903
312.915
311.421
309.235
311.117
308.824
312.05
313.276
311.238
310.485
312.93
309.691
313.488
310.854
310.759
312.319
305.369
303.38
305.596
306.294
306.384
302.699
306.23
303.352
304.096
305.291
301.762
305.334
305.48
304.468
304.875
303.318
303.446
302.341
305.595
304.831
358.964
357.941
357.5
355.408
357.279
356.776
356.419
359.62
360.313
361.743
359.593
360.245
360.597
357.588
356.674
354.986
356.059
358.149
359.791
357.047
351.222
347.492
348.242
348.161
349.464
350.36
349.779
351.176
355.176
351.69
351.791
352.896
350.72
351.248
350.539
351.656
348.9
347.544
347.443
352.295
342.983
339.04
342.075
341.861
341.687
340.148
343.515
343.434
343.966
343.204
344.334
345.234
344.651
343.693
341.861
342.872
344.916
340.915
342.6
343.303
335.437
334.978
337.122
332.152
332.646
331.718
335.246
336.318
337.61
337.367
335.922
334.518
336.5
335.239
334.661
332.764
332.444
332.932
334.927
334.008
326.2
326.858
326.837
325.739
327.407
328.474
327.446
326.685
328.131
328.826
328.862
329.099
328.526
327.571
329.763
326.286
327.077
326.817
327.366
328.568
320.966
319.213
319.59
319.232
318.209
321.252
318.811
320.583
321.705
321.018
321.05
318.89
320.971
318.926
317.164
320.067
320.294
319.538
321.066
319.437
310.822
312.817
310.612
310.736
312.832
310.254
310.9
311.883
310.34
311.526
314.386
314.055
311.766
312.888
313.306
312.486
313.594
309.795
311.681
310.442
304.685
300.929
303.031
304.964
303.687
302.532
303.999
304.116
304.688
303.954
305.738
303.683
303.871
304.776
305.226
303.887
304.295
303.268
304.676
305.294
360.343
360.687
358.044
359.731
362.099
357.301
359.155
361.791
358.94
361.346
363.871
365.402
361.02
360.803
360.036
358.859
359.014
357.836
358.236
360.732
351.988
351.183
351.065
349.534
350.055
350.585
351.388
353.047
354.191
352.551
355.194
351.474
354.095
354.304
351.386
352.895
348.659
351.096
352.222
351.641
344.96
343.373
345.426
342.7
342.628
342.927
343.728
344.699
346.27
347.215
347.58
346.043
346.234
344.776
345.121
342.165
342.4
343.392
343.744
344.002
337.362
335.762
335.734
335.022
335.939
334.439
335.523
337.519
336.856
337.951
337.506
337.103
335.113
335.924
337.571
333.085
335.021
336.642
336.374
335.953
329.306
328.202
328.267
325.833
328.983
327.49
329.048
328.254
330.256
326.634
330.668
327.599
328.917
327.225
327.912
326.219
328.899
327.032
326.926
329.32
320.7
318.931
321.235
319.307
320.461
319.465
320.745
319.667
320.258
321.385
319.4
318.217
317.963
319.72
321.833
319.92
317.862
320.798
317.131
320.781
313.217
313.07
311.811
312.785
313.058
312.697
314.087
311.017
310.29
312.883
314.373
313.254
312.395
312.595
313.746
311.05
312.4
311.159
312.718
311.295
304.211
303.255
306.001
303.458
302.592
303.741
304.314
304.336
304.695
303.992
304.832
303.121
305.278
303.668
303.434
302.414
302.898
305.448
304.068
304.553
363.705
362.652
359.444
359.621
358.564
360.125
363.501
361.424
364.435
364.748
363.244
362.663
362.979
363.06
362.431
359.183
359.741
359.636
358.222
361.792
352.251
350.376
353.24
350.899
353.12
351.653
354.011
353.342
354.939
353.168
353.567
356.051
353.095
355.871
351.948
350.872
351.143
352.068
350.363
353.47
343.679
344.57
344.094
345.489
342.481
343.11
345.716
346.867
349.299
344.957
346.799
346.82
346.064
346.498
345.347
344.772
343.138
346.439
344.597
344.585
336.901
335.488
336.862
334.379
333.858
335.728
337.303
336.681
336.344
337.916
337.77
337.362
340.474
336.152
335.84
338.139
335.986
335.238
335.886
337.119
330.537
327.585
327.051
327.472
329.315
328.5
328.61
328.812
328.541
331.359
331.986
330.65
329.929
327.514
328.671
328.022
327.458
327.874
329.15
328.267
320.798
321.865
320.454
321.129
321.166
319.917
319.478
318.306
321.366
321.357
319.991
320.785
321.75
322.191
319.363
318.908
323.302
320.482
321.179
319.053
314.23
311.237
313.254
312.224
312.525
311.503
313.338
310.921
313.956
313.365
312.899
312.748
312.879
314.821
312.114
312.101
312.606
312.462
310.437
312.004
302.692
304.909
305.315
301.997
305.408
304.239
303.282
304.215
303.691
303.833
303.902
304.985
305.343
305.936
304.565
303.453
303.672
303.832
302.275
305.837
362.744
363.236
362.027
363.215
362.852
362.899
363.375
365.14
364.137
366.401
362.624
363.446
364.405
364.585
362.463
361.926
362.596
358.807
362.054
365.125
356.279
352.058
356.679
353.147
352.483
353.743
350.341
354.087
355.211
355.25
355.426
354.664
354.049
357.249
353.807
355.511
351.955
353.291
351.187
353.9
347.498
348.222
346.282
344.018
342.91
345.802
346.503
347.242
345.734
348.342
348.87
347.401
346.054
345.468
345.633
344.747
345.977
345.143
345.177
345.507
336.201
338.917
336.541
333.717
336.913
338.012
338.618
337.396
340.54
339.539
339.41
338.147
338.699
339.27
339.631
337.9
340.082
335.465
337.811
339.186
332.137
331.749
330.164
327.843
329.995
328.041
330.415
330.342
331.87
330.464
331.305
329.946
330.623
331.208
329.575
329.128
329.401
330.499
329.019
330.048
322.338
322.604
321.428
321.515
320.622
322.984
322.729
321.543
321.067
318.543
321.163
321.45
322.14
318.534
320.477
320.689
320.122
321.817
320.338
321.157
310.409
314.966
313.909
312.67
313.517
310.111
311.525
312.692
315.095
313.254
311.476
312.391
314.01
312.814
311.943
313.358
313.747
310.934
311.159
311.311
304.768
305.227
303.906
304.629
307.036
302.289
302.722
306.433
304.079
304.413
303.078
305.315
303.176
304.731
304.794
303.918
303.96
302.378
302.484
304.938
365.316
362.399
363.411
361.603
364.204
362.787
363.778
366.677
367.461
366.472
368.073
368.174
365.466
365.485
363.652
363.637
362.073
364.693
364.009
363.838
357.098
357.184
356.029
356.071
353.291
353.676
357.396
355.775
355.992
359.932
358.903
359.331
359.988
356.793
354.924
358.365
352.699
354.736
355.649
357.915
349.746
347.726
345.978
349.882
346.21
346.532
347.212
347.407
349.234
347.612
349.746
347.25
347.023
347.17
345.665
346.022
348.521
347.762
345.825
347.6
339.822
338.046
336.347
340.578
339.499
339.313
339.371
341.654
341.196
341.755
337.358
339.61
342.059
338.965
339.47
341.471
336.122
336.665
337.151
337.825
330.884
331.517
330.87
329.973
327.844
329.055
328.654
334.308
331.134
328.9
332.448
330.883
331.838
330.087
330.593
329.525
327.974
328.649
331.351
330.894
320.818
322.162
322.765
323.271
320.923
320.692
321.561
320.424
323.757
323.043
323.042
324.543
322.917
322.423
319.488
320.937
322.52
322.036
319.986
321.364
311.333
314.425
312.435
311.979
312.099
312.365
313.006
315.655
312.526
314.662
314.899
313.332
312.341
314.265
312.977
311.675
312.52
313.636
311.882
311.566
303.2
302.608
303.298
304.675
300.544
305.843
302.888
305.073
305.69
303.108
305.03
303.166
305.431
303.67
307.249
306.417
304.156
305.525
304.737
303.7
367.934
366.587
367.556
366.966
366.76
366.578
366.092
365.278
368.686
368.711
368.439
369.115
366.67
368.323
364.934
365.293
365.685
364.033
365.961
366.539
360.661
355.566
356.303
355.717
357.301
357.036
357.339
357.083
359.054
357.194
357.886
359.01
357.271
358.365
356.684
358.326
356.477
354.712
354.9
357.853
349.616
348.856
349.118
346.961
347.543
347.99
348.445
348.273
353.365
350.24
349.021
352.903
350.941
350.168
348.085
348.848
348.234
348.963
347.091
348.568
340.43
338.319
341.66
339.722
338.469
341.674
339.324
342.318
343.982
341.882
339.337
342.554
338.267
342.062
341.634
338.955
337.372
340.119
340.75
338.84
332.437
331.967
329.518
330.189
330.728
331.184
330.704
332.286
330.881
333.029
332.182
332.268
332.019
333.422
329.98
331.047
330.57
330.803
330.938
331.173
323.24
319.35
323.978
323.825
325.622
322.952
320.824
321.02
323.32
322.303
323.084
322.059
322.172
323.738
325.112
321.795
322.663
321.387
323.175
323.287
315.016
312.685
313.794
312.417
311.351
313.345
315.169
314.636
313.442
312.524
313.442
311.165
313.729
315.199
311.997
313.05
312.991
313.799
313.809
312.369
305.641
303.307
303.242
305.918
304.212
304.914
306.215
304.388
307.333
305.257
302.663
305.239
305.327
305.174
306.502
305.485
305.192
302.615
303.235
305.246
369.658
368.589
369.027
367
367.233
366.2
366.972
369.531
367.082
371.959
373.914
365.415
368.126
370.351
368.316
368.336
370.287
368.224
367.632
372.095
362.114
359.082
358.886
360.612
358.055
359.337
360.732
358.157
360.6
361.427
360.552
361.419
360.087
360.837
361.118
358.974
358.914
359.155
360.807
358.451
351.92
351.214
350.579
347.987
348.961
347.812
351.911
351.225
349.77
349.931
352.457
349.269
353.134
350.776
351.768
348.35
348.931
350.314
349.331
350.095
340.136
342.184
341.548
339.947
338.359
338.24
341.409
341.263
341
342.605
344.513
342.397
341.754
341.793
340.493
340.195
340.716
341.502
339.338
342.099
330.675
330.313
333.822
330.664
332.027
333.417
331.661
332.74
330.923
332.968
332.776
332.808
331.785
333.211
330.256
330.455
332.866
334.518
331.714
332.377
323.75
321.3
323.365
323.716
322.684
322.457
322.108
322.483
324.496
321.72
321.734
323.727
323.864
322.715
324.404
322.477
323.588
322.963
323.839
321.71
315.41
312.673
313.221
315.519
316.37
314.418
314.165
314.683
313.517
314.566
313.521
313.575
314.657
315.631
311.768
313.732
314.556
313.702
314.424
313.87
303.559
305.236
304.908
303.958
304.989
305.239
305.898
305.87
303.515
304.851
304.681
303.903
305.246
303.699
303.526
305.766
302.493
304.103
304.582
304.877
371.626
372.556
371.046
368.871
368.502
369.189
369.017
369.103
371.094
370.36
369.413
371.079
371.794
370.777
368.814
370.072
365.713
370.16
372.065
369.979
360.973
359.628
359.252
360.42
359.746
360.9
359.311
361.269
360.542
361.086
361.133
362.871
360.119
362.268
360.694
360.49
360.041
360.419
359.038
361.125
351.925
354.238
351.491
351.549
350.023
348.96
351.006
350.853
352.314
351.855
350.3
352.482
352.24
352.909
352.252
353.019
351.051
351.729
352.828
352.477
341.982
341.955
342.486
340.528
340.989
343.693
342.083
342.504
343.311
342.461
343.809
341.721
344.778
342.094
343.853
340.919
342.276
340.448
341.893
341.773
332.624
331.36
333.92
332.303
332.452
333.307
331.807
331.412
334.174
332.452
332.954
333.386
332.25
332.676
331.701
332.613
334.791
331.49
331.647
333.42
324.759
325.125
323.487
324.472
323.036
324.038
320.983
323.903
321.534
324.766
320.565
322.861
325.347
323.066
324.504
322.509
321.478
321.106
324.472
324.603
313.059
314.824
315.634
311.562
313.457
314.967
312.049
314.267
315.943
311.928
314.548
314.473
313.154
314.948
315.409
314.306
312.288
314.855
314.645
314.073
305.403
305.896
305.516
303.577
305.147
304.678
304.479
303.982
304.651
303.183
304.532
305.523
303.267
306.052
305.525
305.752
304.105
304.803
304.316
305.927
372.721
373.18
371.45
371.143
372.212
368.321
370.817
370.066
373.642
373.458
372.57
374.009
371.467
370.45
370.388
371.459
371.321
371.146
371.341
370.821
364.81
363.428
361.163
360.092
362.075
360.73
363.771
364.35
363.714
361.242
362.738
363.082
360.368
360.204
363.559
360.585
360.573
360.017
362.3
363.82
354.351
351.322
353.379
353.138
350.978
352.157
352.338
353.733
349.735
352.173
355.21
353.226
350.934
352.884
350.158
352.548
350.103
352.163
354.446
354.497
341.363
343.931
340.792
342.805
344.695
340.918
341.075
344.31
344.33
344.588
344.611
340.179
343.287
341.856
344.212
343.442
342.521
344.959
344.043
341.261
332.213
334.005
333.401
329.812
333.695
334.768
334.298
336.401
335.358
336.044
334.263
334.316
334.341
333.196
332.561
333.899
331.787
331.503
333.293
334.531
325.426
327.141
323.615
323.487
321.158
324.782
323.071
324.879
322.31
324.399
324.057
323.835
324.211
322.63
323.785
325.34
325.856
325.246
322.781
326.168
313.282
316.848
315.322
312.87
314.654
315.336
313.807
315.044
313.448
313.309
311.944
312.988
314.65
315.087
313.396
313.918
311.853
313.58
313.016
315.062
304.836
307.269
304.397
304.201
305.957
305.694
304.334
303.834
306.073
304.168
304.145
304.824
305.181
306.47
303.97
305.558
305.489
302.86
305.06
305.701
377.806
375.867
374.496
372.951
374.476
372.494
372.972
372.367
374.408
374.621
375.801
373.28
373.226
374.389
371.722
373.704
371.996
373.064
371.861
374.388
363.292
363.901
364.739
364.568
363.272
364.651
362.553
364.923
365.368
364.93
365.943
364.935
364.753
364.389
364.468
362.753
364.485
362.134
363.78
365.437
354.694
354.48
352.382
352.608
353.27
353.25
353.688
352.594
354.536
355.661
354.048
355.393
354.619
355.835
352.405
352.644
353.127
354.589
353.521
355.126
345.605
345.763
344.802
343.199
344.85
343.352
343.38
343.776
342.585
343.389
345.491
345.018
342.948
343.359
343.986
342.389
344.343
344.11
343.276
344.726
335.238
335.626
333.716
334.994
335.004
334.413
333.721
335.185
336.074
334.396
334.782
333.427
335.314
331.925
333.745
332.727
331.223
334.481
333.58
334.762
327.283
325.513
323.118
325.498
325.335
324.781
326.209
325.263
324.509
325.806
323.749
325.115
322.385
324.006
322.113
326.408
322.982
323.695
323.677
324.07
315.619
314.7
316.207
314.779
317.446
316.759
314.188
315.251
316.545
315.813
315.232
315.992
315.198
317.614
316.892
313.495
316.142
314.376
314.511
313.856
305.502
303.369
305.397
305.63
303.813
304.513
303.272
307.773
303.791
305.116
305.749
305.085
305.309
306.912
303.389
305.12
304.603
305.201
305.595
306.841
377.023
377.054
376.154
374.312
374.102
375.06
374.012
374.815
373.272
376.775
378.1
376.081
375.761
373.775
374.567
374.98
375.24
374.285
376.015
378.706
369.665
365.167
365.041
364.31
365.857
362.503
365.459
366.019
367.043
367.724
365.661
363.73
366.157
363.608
363.451
363.777
365.42
364.977
364.502
368.117
356.459
356.762
355.785
353.126
355.467
355.351
355.214
355.635
356.403
355.823
353.916
356.101
356.191
356.018
354.676
355.224
353.475
354.468
356.584
354.752
348.206
342.868
345.363
342.045
345.09
344.799
345.859
344.567
346.359
347.128
346.865
345.379
344.985
347.375
343.747
344.934
343.755
345.102
344.522
345.648
338.413
334.016
337.219
333.577
334.44
335.433
337.137
337.28
334.737
333.498
335.903
335.421
335.404
332.829
337.104
335.23
333.832
333.282
334.456
335.097
322.881
326.505
324.957
324.42
325.025
327.436
325.453
326.238
324.562
327.04
327.533
323.489
325.806
324.141
325.178
324.735
324.682
325.664
325.075
322.654
315.581
316.419
313.191
316.472
314.329
315.032
316.631
315.208
314.333
315.041
316.102
314.154
317.091
314.755
314.09
316.001
314.767
314.983
312.146
316.879
303.214
306.947
305.219
305.876
306.472
304.254
306.967
304.18
305.817
305.075
304.776
304.052
305.249
303.034
304.174
304.463
303.057
305.48
301.921
305.377
376.378
377.293
377.058
377.26
375.197
377.605
376.541
378.487
378.222
377.467
374.983
376.299
377.488
372.734
375.415
376.424
375.335
375.924
376.493
375.878
372.272
368.647
367.739
368.629
366.432
369.072
363.561
369.905
366.192
369.395
369.936
366.332
369.577
366.157
368.856
365.262
369.142
365.418
368.515
365.848
355.959
357.194
358.518
354.867
355.586
356.576
357.198
356.324
354.264
355.267
357.222
356.56
354.517
356.166
355.693
357.197
355.67
356.763
357.222
357.492
346.1
347.114
345.521
346.14
346.186
346.818
341.982
347.917
344.961
346.86
344.748
347.145
343.529
345.522
345.81
343.811
347.596
347.569
348.461
348.383
336.473
335.283
336.735
337.273
335.361
335.873
335.115
336.459
336.215
333.998
335.517
336.013
335.087
333.503
335.731
334.561
333.875
336.757
337.27
334.774
326.524
324.402
325.707
325.629
323.417
326.502
326.459
323.916
325.733
326.802
325.926
325.504
325.048
324.906
326.351
324.604
326.062
326.501
324.805
327.415
316.429
317.268
316.426
314.869
317.174
312.911
316
314.846
316.982
317.567
312.627
315.774
313.843
314.186
313.852
317.069
316.819
315.356
317.454
313.822
306.798
304.738
304.619
304.888
307.811
306.212
307.236
306.554
302.896
306.47
305.484
303.457
305.441
305.722
306.593
305.56
305.278
304.525
306.943
308.801
380.544
379.458
377.856
378.938
377.31
376.854
378.567
378.77
379.941
378.316
378.155
377.63
376.812
378.146
379.515
375.539
378.603
379.9
378.237
376.201
371.078
370.052
368.841
366.625
367.791
366.055
364.572
366.218
367.432
365.103
367.788
367.681
367.466
370.114
365.989
365.883
366.035
367.538
368.984
368.734
358.378
357.746
357.925
357.826
356.984
357.973
356.971
355.69
357.65
356.372
359.727
356.823
357.188
357.087
357.274
357.025
355.832
356.291
357.885
357.397
347.652
347.423
346.758
345.245
346.188
344.954
347.487
347.439
346.704
345.022
344.905
346.332
345.838
344.914
345.109
345.708
345.579
346.244
345.919
349.495
336.597
335.839
337.034
336.146
337.88
336.083
335.669
337.538
337.103
335.885
338.412
334.962
336.347
336.98
335.806
334.679
337.04
337.779
338.175
336.326
324.407
327.598
328.198
327.41
324.59
325.801
326.925
325.892
324.891
324.94
328.412
324.952
327.21
325.137
323.408
325.056
325.164
325.195
323.747
325.897
318.055
316.171
314.153
314.244
314.445
316.113
313.994
314.242
314.979
313.258
317.023
316.866
318.076
316.669
316.08
315.165
315.782
317.495
316.789
314.792
304.326
302.812
306.754
305.042
305.946
307.963
306.091
305.096
306.423
305.492
304.278
305.042
306.34
305.844
305.77
304.778
306.052
304.392
306.27
306.367
)
;

boundaryField
{
    hotSide
    {
        type            fixedGradient;
        gradient        nonuniform List<scalar> 
400
(
321.511
322.87
325.591
329.677
335.133
341.965
350.181
359.788
370.794
383.208
397.037
412.289
428.971
447.088
466.647
487.651
510.105
534.011
559.372
586.191
323.738
325.08
327.767
331.802
337.194
343.949
352.078
361.591
372.498
384.81
398.537
413.687
430.268
448.289
467.755
488.672
511.043
534.872
560.161
586.913
326.149
327.47
330.116
334.091
339.406
346.071
354.099
363.503
374.296
386.491
400.101
415.136
431.606
449.52
468.885
489.706
511.988
535.735
560.948
587.63
328.704
330
332.597
336.503
341.73
348.292
356.205
365.485
376.15
388.215
401.695
416.604
432.954
450.753
470.009
490.73
512.919
536.579
561.714
588.325
331.33
332.599
335.142
338.97
344.099
350.546
358.332
367.477
378.003
389.928
403.271
418.047
434.27
451.949
471.095
491.712
513.807
537.382
562.439
588.978
333.918
335.158
337.643
341.389
346.414
352.74
360.392
369.397
379.779
391.562
404.765
419.407
435.503
453.065
472.101
492.618
514.622
538.114
563.096
589.569
336.321
337.531
339.959
343.622
348.544
354.751
362.274
371.142
381.385
393.031
406.101
420.618
436.595
454.047
472.983
493.409
515.33
538.747
563.663
590.076
338.36
339.543
341.92
345.509
350.339
356.44
363.847
372.595
382.718
394.244
407.2
421.608
437.485
454.844
473.695
494.045
515.897
539.253
564.114
590.478
339.852
341.015
343.352
346.885
351.645
357.665
364.985
373.643
383.675
395.113
407.984
422.312
438.116
455.407
474.197
494.491
516.294
539.606
564.428
590.758
340.643
341.795
344.11
347.613
352.334
358.311
365.584
374.193
384.176
395.567
408.393
422.679
438.443
455.699
474.456
494.722
516.498
539.788
564.589
590.901
340.643
341.795
344.11
347.613
352.334
358.311
365.584
374.193
384.176
395.567
408.393
422.679
438.443
455.699
474.456
494.722
516.498
539.788
564.589
590.901
339.852
341.015
343.352
346.885
351.645
357.665
364.985
373.643
383.675
395.113
407.984
422.312
438.116
455.407
474.197
494.491
516.294
539.606
564.428
590.758
338.36
339.543
341.92
345.509
350.339
356.44
363.847
372.595
382.718
394.244
407.2
421.608
437.485
454.844
473.695
494.045
515.897
539.253
564.114
590.478
336.321
337.531
339.959
343.622
348.544
354.751
362.274
371.142
381.385
393.031
406.101
420.618
436.595
454.047
472.983
493.409
515.33
538.747
563.663
590.076
333.918
335.158
337.643
341.389
346.414
352.74
360.392
369.397
379.779
391.562
404.765
419.407
435.503
453.065
472.101
492.618
514.622
538.114
563.096
589.569
331.33
332.599
335.142
338.97
344.099
350.546
358.332
367.477
378.003
389.928
403.271
418.047
434.27
451.949
471.095
491.712
513.807
537.382
562.439
588.978
328.704
330
332.597
336.503
341.73
348.292
356.205
365.485
376.15
388.215
401.695
416.604
432.954
450.753
470.009
490.73
512.919
536.579
561.714
588.325
326.149
327.47
330.116
334.091
339.406
346.071
354.099
363.503
374.296
386.491
400.101
415.136
431.606
449.52
468.885
489.706
511.988
535.735
560.948
587.63
323.738
325.08
327.767
331.802
337.194
343.949
352.078
361.591
372.498
384.81
398.537
413.687
430.268
448.289
467.755
488.672
511.043
534.872
560.161
586.913
321.511
322.87
325.591
329.677
335.133
341.965
350.181
359.788
370.794
383.208
397.037
412.289
428.971
447.088
466.647
487.651
510.105
534.011
559.372
586.191
)
;
    }
    coldSide
    {
        type            mixed;
        refValue        uniform 300;
        refGradient     uniform 0;
        valueFraction   uniform 0.991591;
        source          uniform 0;
        value           nonuniform List<scalar> 
400
(
300.041
300.032
300.016
300.028
300.03
300.023
300.045
300.039
300.035
300.023
300.04
300.027
300.047
300.03
300.045
300.041
300.046
300.027
300.057
300.036
300.048
300.038
300.029
300.032
300.028
300.039
300.028
300.008
300.027
300.041
300.044
300.022
300.028
300.044
300.05
300.061
300.028
300.058
300.04