/*--------------------------------*- C++ -*----------------------------------*\
| =========                 |                                                 |
| \\      /  F ield         | OpenFOAM: The Open Source CFD Toolbox           |
|  \\    /   O peration     | Version:  2212                                  |
|   \\  /    A nd           | Website:  www.openfoam.com                      |
|    \\/     M anipulation  |                                                 |
\*---------------------------------------------------------------------------*/
FoamFile
{
    version     2.0;
    format      ascii;
    arch        "LSB;label=32;scalar=64";
    class       volScalarField;
    location    "0";
    object      relativeErrorField;
}
// * * * * * * * * * * * * * * * * * * * * * * * * * * * * * * * * * * * * * //

dimensions      [0 0 0 1 0 0 0];

internalField   nonuniform List<scalar> 
3200
(
0.00597413
0.00583504
0.0064639
0.00755205
0.0091345
0.0107264
0.0126819
0.0141574
0.0154989
0.0165685
0.0166115
0.0160889
0.0150236
0.0138144
0.0123203
0.01076
0.00959903
0.00894878
0.00882717
0.00863641
0.00489882
0.00506129
0.00563547
0.00640093
0.00770057
0.00906987
0.011042
0.0124373
0.0136066
0.0142162
0.014349
0.0139076
0.0131084
0.012014
0.0108047
0.00958635
0.00830499
0.0075989
0.00730237
0.00724681
0.00410049
0.00408423
0.00441689
0.0052109
0.00649671
0.00767487
0.00909288
0.0103179
0.011545
0.0121738
0.0122517
0.0119371
0.0110877
0.0101465
0.00882317
0.00800498
0.00704042
0.00653631
0.00611687
0.00605806
0.00321874
0.00330087
0.00384744
0.00444764
0.00498348
0.00643433
0.00759122
0.00848383
0.00936548
0.0100413
0.0101716
0.00982877
0.00904914
0.00832546
0.00728594
0.00652059
0.00573355
0.00519038
0.00504012
0.00508623
0.00253408
0.00250038
0.0027736
0.0033316
0.00397893
0.00493529
0.00604782
0.00660424
0.0074202
0.00786505
0.00786895
0.0076829
0.00719441
0.0062534
0.00570967
0.00497824
0.00447829
0.0042036
0.00376433
0.00387698
0.00169051
0.00172273
0.00166943
0.00242923
0.00271584
0.00344916
0.00418929
0.00484891
0.00529848
0.00575077
0.00595126
0.00573094
0.00522944
0.00462469
0.00407429
0.00375534
0.00305392
0.00281786
0.00279498
0.00267823
0.00102534
0.00116575
0.00119012
0.00136565
0.00170629
0.00188778
0.0027436
0.00295218
0.0033192
0.00343648
0.00334759
0.00354563
0.00327332
0.00289567
0.00256138
0.00232285
0.00184807
0.00162413
0.00192139
0.0018325
0.000597465
0.000367142
0.000397737
0.000626962
0.000519827
0.000801582
0.000929623
0.00118833
0.000788342
0.00106078
0.00114895
0.00120121
0.00112967
0.00092891
0.00073681
0.00067433
0.000700655
0.000820674
0.000392169
0.000670822
0.00401484
0.00400673
0.00451979
0.00523732
0.00685165
0.00855584
0.0103476
0.0117958
0.0133181
0.0139996
0.0142306
0.0138022
0.0127586
0.0115861
0.0101879
0.00860622
0.00750523
0.00695798
0.00646536
0.0067834
0.00335415
0.00334523
0.00362036
0.00497717
0.00588351
0.00745925
0.00901762
0.0103697
0.0116537
0.0123769
0.0122003
0.0119416
0.0111933
0.0101903
0.00883284
0.00732181
0.00639878
0.00587498
0.00593842
0.00561898
0.00274346
0.00283115
0.00290936
0.00394559
0.00495788
0.00629501
0.00774368
0.0089691
0.0098046
0.0103915
0.0107194
0.0101397
0.00949005
0.00872686
0.00724361
0.00636002
0.00563602
0.00496339
0.00484578
0.00503971
0.00229065
0.00235479
0.00240334
0.00329056
0.00385086
0.00508872
0.00623652
0.0072185
0.00828792
0.00883909
0.0088413
0.00846694
0.00786719
0.00696262
0.00625345
0.00513856
0.00453593
0.00403107
0.00391947
0.00395506
0.00163792
0.00187165
0.00213802
0.00246663
0.00318643
0.00406862
0.00483576
0.00559081
0.00616694
0.00688028
0.00703097
0.00664826
0.00621714
0.00540368
0.00466107
0.00409854
0.0034867
0.00327059
0.00310927
0.00304578
0.00114222
0.00107824
0.00162236
0.00173021
0.00224018
0.00287966
0.00346303
0.00403915
0.00473173
0.0048797
0.00477123
0.0049752
0.00459751
0.00407534
0.00349594
0.00292854
0.00250154
0.00224156
0.00209678
0.0020456
0.00074838
0.000944812
0.000715345
0.00115548
0.00154059
0.00180669
0.00209859
0.00245146
0.00291862
0.00317528
0.0031039
0.00305652
0.00279395
0.00226804
0.0021995
0.0016943
0.00139587
0.00146286
0.00133274
0.0015153
0.00015739
0.000149004
0.000254702
0.000392533
0.000507018
0.000476055
0.000925974
0.000945833
0.000984687
0.00102257
0.00117945
0.00103838
0.000730102
0.000956099
0.000663269
0.000627177
0.000440202
0.000494393
0.000497037
0.000370076
0.00166968
0.00151504
0.00195139
0.00269299
0.00405968
0.00570865
0.00724293
0.00871755
0.0102324
0.0107849
0.0111825
0.0108342
0.00979227
0.00870129
0.00715067
0.00585817
0.00485704
0.00440154
0.00419555
0.00449875
0.00143029
0.00128436
0.00157024
0.00237124
0.00358362
0.00512383
0.00628062
0.00773654
0.00889847
0.00941553
0.00984143
0.00931318
0.00847669
0.00755628
0.00632487
0.00508341
0.00413453
0.00366238
0.00364223
0.00381791
0.000866515
0.00105444
0.00138296
0.00188263
0.00282271
0.00418251
0.00525338
0.00667689
0.00741517
0.0080575
0.00838519
0.00799143
0.00733091
0.00635147
0.00549559
0.0045009
0.00366083
0.00327427
0.00318255
0.0032556
0.000827201
0.000637297
0.00112641
0.00160506
0.00230988
0.00343844
0.00454206
0.0053064
0.00619835
0.00666022
0.00690979
0.00672219
0.00612428
0.00521973
0.00422402
0.00368239
0.00283987
0.00250055
0.00240543
0.00283172
0.000450385
0.000627815
0.000677702
0.00124807
0.00194654
0.00277701
0.0036025
0.00439005
0.00492223
0.00523304
0.00555239
0.00532546
0.00476332
0.00417919
0.00351588
0.00259282
0.00214399
0.00195233
0.00193076
0.00206774
0.000567837
0.00019511
0.000663127
0.000742941
0.00120614
0.00207679
0.00235541
0.00325623
0.00359502
0.00382736
0.00387732
0.00374346
0.00355782
0.00315242
0.00254693
0.00198426
0.00158922
0.00127999
0.0013169
0.00150079
0.000161281
0.000106374
0.000365299
0.000435055
0.000705224
0.00103775
0.00131204
0.00168775
0.00215722
0.00235387
0.0024174
0.00252494
0.00211579
0.00175494
0.00164019
0.00131384
0.00114575
0.00104443
0.000843432
0.000757499
5.90001e-05
0.000176584
2.10278e-05
0.000222696
0.000220155
0.000490362
0.000488226
0.000752622
0.000925233
0.000656681
0.000941332
0.000753431
0.000638132
0.000444917
0.000528955
0.000224872
0.000258411
0.000396324
0.000259082
0.000286656
0.000610716
0.000624501
0.000269124
0.000314441
0.00132062
0.00258336
0.00454705
0.00595699
0.00695826
0.00759967
0.00791422
0.00735573
0.00660873
0.0056493
0.0043074
0.00310474
0.00239271
0.00202069
0.00208548
0.0022987
0.000378984
0.000642106
0.000392986
0.000198776
0.00113992
0.0023373
0.00386929
0.00503525
0.00611735
0.00646101
0.00703226
0.00664479
0.00578079
0.00482101
0.00381373
0.00253306
0.00212605
0.00172627
0.00156136
0.00204312
0.000248237
0.000514534
0.000245476
7.10963e-05
0.000944701
0.00197271
0.00319597
0.00415013
0.00504477
0.00556846
0.00581831
0.00563552
0.00480862
0.00398091
0.00323669
0.00218315
0.00164401
0.00138068
0.00117674
0.00171798
0.000588292
0.000582993
0.000282447
4.09332e-05
0.000694983
0.00174491
0.00252195
0.00351908
0.00438371
0.00482949
0.00468282
0.00462742
0.00388698
0.00351497
0.00249835
0.00216626
0.00110793
0.00106991
0.00125172
0.00132508
0.000336834
0.000335547
0.000234929
0.000157077
0.000498957
0.0011763
0.00201271
0.00291879
0.00320945
0.00356002
0.00384039
0.00358902
0.00329056
0.00269178
0.0019314
0.00148591
0.00119733
0.000933953
0.00112209
0.00103256
0.000285589
0.000458204
0.000444906
0.000176091
0.00038266
0.000999367
0.00146202
0.00208079
0.00224602
0.00255369
0.00267846
0.0027062
0.00250248
0.00196221
0.00149484
0.00114499
0.000771793
0.000736055
0.000692499
0.000717295
0.000137502
3.14679e-05
1.83732e-05
0.000144581
0.000222554
0.000455621
0.00103665
0.00110805
0.00136043
0.00167193
0.00176773
0.0015985
0.00153071
0.00116709
0.000926974
0.000759062
0.000539166
0.000468848
0.000459975
0.000256311
3.26284e-05
4.2403e-05
6.04927e-05
8.72903e-05
6.2371e-05
0.000140465
0.000239816
0.000393019
0.000522656
0.000533739
0.000513601
0.000576976
0.000515456
0.000382529
0.000576874
0.000242282
0.000124002
3.89911e-05
0.000290112
0.000145858
0.0021974
0.00235296
0.00240233
0.0021109
0.00112682
0.000270621
0.00148699
0.00304651
0.00395015
0.00458108
0.00490455
0.00455657
0.00383088
0.00256979
0.0017154
0.000811277
5.43585e-05
6.89504e-06
6.6643e-05
0.000510652
0.00200301
0.00228596
0.00223886
0.00164069
0.000934538
0.000141294
0.001312
0.00244574
0.00334864
0.00403342
0.00424121
0.00404414
0.00317014
0.00262608
0.00141943
0.000572278
0.000131521
0.00012792
0.0001624
0.000497282
0.00169787
0.00187352
0.00182065
0.00146697
0.000618146
8.15224e-06
0.000997112
0.00207985
0.00301415
0.00344044
0.0035053
0.0033469
0.00273164
0.00220292
0.00135182
0.000321335
8.31183e-05
1.33632e-05
6.87303e-05
0.000225064
0.0015078
0.0018343
0.00161468
0.00121008
0.000819852
9.74636e-05
0.0006781
0.00177525
0.00233739
0.00291018
0.0027908
0.00267986
0.00209898
0.00155323
0.000998172
0.000259037
0.000220664
8.76575e-05
6.28223e-06
0.000279361
0.00103765
0.00145144
0.00162401
0.00107701
0.000608779
0.000315926
0.00076384
0.00140507
0.00170548
0.00231522
0.00214435
0.00210008
0.00174129
0.00115495
0.000741946
0.000191746
9.59329e-05
0.000268567
3.83104e-05
7.99773e-05
0.000917793
0.00106713
0.00110158
0.000874276
0.000513856
0.000109518
0.000631614
0.000946111
0.00103702
0.00145161
0.00159522
0.00151452
0.00125177
0.00066069
0.000678744
0.00025776
0.000143058
0.00016114
2.19754e-05
0.000328178
0.000366896
0.000548025
0.000873344
0.000539478
0.000300181
0.00017311
0.000392291
0.000550232
0.000860813
0.000931837
0.00098611
0.00100103
0.000725347
0.000583455
0.000424631
0.000225956
4.47834e-05
1.24102e-05
3.28811e-05
0.000122294
8.02248e-05
0.000252265
0.000175361
0.000234049
9.82354e-05
0.000231595
0.000144681
7.61514e-05
0.00026044
0.000258733
0.000319972
0.000346132
0.000130345
0.000193303
0.000190365
4.35033e-05
0.000166563
5.26882e-05
3.82495e-05
3.0399e-05
0.00328706
0.00399666
0.00387045
0.00366732
0.00295744
0.00208537
0.000829773
0.000306798
0.00133434
0.00211555
0.00192335
0.00174938
0.00100163
0.00032471
0.000458212
0.00125411
0.00184089
0.0019111
0.00125249
0.000574066
0.00295321
0.00359485
0.00351875
0.00332392
0.00275397
0.00179514
0.00103221
0.000145539
0.000939581
0.00174293
0.00167453
0.00140205
0.000851899
0.00024923
0.000397235
0.00113363
0.00172185
0.00141108
0.00127622
0.00078498
0.00278995
0.00315245
0.00323538
0.00290469
0.00226323
0.00163152
0.000849607
3.25546e-05
0.000930694
0.00119444
0.00139494
0.00150029
0.000695965
0.000169289
0.000631416
0.000887972
0.00147339
0.00137246
0.00119363
0.000501914
0.00235172
0.00265106
0.00264655
0.00255067
0.00209621
0.00165247
0.000638794
0.000196894
0.000540518
0.00117309
0.0011581
0.000874088
0.000462137
0.00014118
0.000410359
0.000825898
0.00118476
0.00126391
0.000905714
0.000637345
0.00177349
0.00206642
0.00219363
0.0020344
0.00174969
0.00103935
0.000625113
0.000155398
0.000620567
0.000816323
0.000845351
0.000679526
0.000457697
0.000267255
0.000586396
0.000602124
0.00084595
0.0010096
0.000639881
0.000425202
0.00138276
0.00144449
0.00150761
0.00136801
0.00133657
0.000781041
0.000376594
0.000139968
0.00030063
0.000506433
0.000625403
0.000455565
0.000265637
2.07761e-05
0.000207091
0.00055527
0.000762837
0.000788178
0.000449036
0.000375651
0.000948912
0.00107235
0.000943536
0.000939813
0.000659094
0.000563319
0.000263424
0.000164842
0.000342783
0.000280548
0.0002695
0.000343231
0.000205081
1.09874e-05
0.000386451
0.00014268
0.000563606
0.000645726
0.000572381
0.000444496
0.00020356
0.000252869
0.000251309
0.000329391
5.75805e-05
0.000240823
0.000201841
6.36635e-05
7.28114e-05
9.3167e-05
0.000290784
0.000156406
9.33525e-05
2.83371e-05
5.76803e-05
0.000312673
3.75719e-05
0.000194116
0.000376853
0.000125656
0.0039836
0.0047059
0.00490692
0.00488757
0.0044959
0.00381603
0.00267745
0.00184895
0.000726645
0.000459137
0.00029164
0.000443886
0.000963824
0.0017399
0.00227192
0.00280274
0.0030831
0.00289254
0.00234958
0.00129669
0.00359575
0.00415116
0.0044386
0.00475584
0.0041249
0.003403
0.00274514
0.0017191
0.00102463
0.000468328
0.000646166
0.000305757
0.000883249
0.00148024
0.00202385
0.00263213
0.00269773
0.00260168
0.00214963
0.0011701
0.00328304
0.00391129
0.00399034
0.00398321
0.00356741
0.00297991
0.00222771
0.00145588
0.00103818
0.000338994
0.00022402
0.000142518
0.00114843
0.00137169
0.0020197
0.00241411
0.00245555
0.00225962
0.00176045
0.00128033
0.0026103
0.00309806
0.00347465
0.00337164
0.00311286
0.00261688
0.00186829
0.00138787
0.000753531
0.000401497
0.000478557
0.000308314
0.000805078
0.00140734
0.00153902
0.00183245
0.00185303
0.00188242
0.00153424
0.00101754
0.00221758
0.0026691
0.00295772
0.00268192
0.00249551
0.0018514
0.00147799
0.000998166
0.00044821
0.000426746
0.000123046
0.000363623
0.000529294
0.000962582
0.00131805
0.00151498
0.00144897
0.00161938
0.00136618
0.00104587
0.00147593
0.00178683
0.00197403
0.00177654
0.00179554
0.00155091
0.00106375
0.000675093
0.000568012
0.000368321
0.000199318
0.000149494
0.000379748
0.000717585
0.000843395
0.00108228
0.00115195
0.000996702
0.000766203
0.00068109
0.00109141
0.00127704
0.00123569
0.00125731
0.00109439
0.00074764
0.000979749
0.0004207
0.000483562
1.77533e-05
0.000174756
9.25031e-05
9.99316e-05
0.000387084
0.000548246
0.000766514
0.000494572
0.000855232
0.000652677
0.000528534
0.000360556
0.000486502
0.000132138
0.000454905
0.000305984
0.000414024
0.000222893
7.84268e-06
0.00030913
0.000251038
6.64843e-05
0.000268676
7.38242e-05
3.1441e-05
0.00029325
0.00041297
0.000230553
0.000136205
0.000123076
7.33481e-05
0.00444587
0.00506876
0.00534591
0.00556442
0.00547509
0.00507467
0.00424131
0.00335463
0.00260573
0.00239401
0.00219953
0.00246165
0.00253225
0.0030277
0.00343915
0.00376725
0.00376895
0.00304255
0.00272638
0.00170781
0.00365439
0.00457443
0.00488683
0.00513337
0.00482113
0.00451029
0.00365704
0.00310468
0.00260731
0.00226199
0.00195934
0.00205591
0.00228309
0.0028789
0.00328409
0.00350979
0.00357524
0.00300221
0.00227013
0.00149162
0.00328126
0.0039988
0.00437328
0.00457123
0.00426883
0.00381022
0.00319335
0.00260368
0.00216163
0.00188165
0.00180555
0.00174901
0.00214451
0.00263919
0.00279378
0.00308264
0.00279128
0.00272585
0.00199646
0.00142733
0.00282833
0.00325831
0.00367186
0.00391713
0.00364203
0.0032697
0.00280172
0.00246149
0.0019353
0.00180187
0.00156986
0.00142532
0.0018059
0.00199543
0.0023234
0.00242009
0.00246608
0.0021783
0.00161559
0.00127243
0.00221269
0.00277335
0.003015
0.00300924
0.00285375
0.00250321
0.00230295
0.00216597
0.00164829
0.00123145
0.00136112
0.00135679
0.00143698
0.00185698
0.00190505
0.00209442
0.00210193
0.00167104
0.00136559
0.000919945
0.00180332
0.00214887
0.00235223
0.00223321
0.00200951
0.00186111
0.00175112
0.0015502
0.00119167
0.000992342
0.000917208
0.00104926
0.00105746
0.00118396
0.0012369
0.00142116
0.00147181
0.00153261
0.00102333
0.000528655
0.00118976
0.00123428
0.00140377
0.00132232
0.00127923
0.00115654
0.000840943
0.0009442
0.000815648
0.000563428
0.00044738
0.000545317
0.000846174
0.000795923
0.0008407
0.000934612
0.00101785
0.00068049
0.00063573
0.000464446
0.000543845
0.000608919
0.000456868
0.000559107
0.000673981
0.000495074
0.000176607
0.000167541
0.000336596
0.00031493
0.000221028
0.000233871
0.0001852
0.000360986
0.000364852
0.000365259
0.000488759
0.000209639
0.000211343
2.75524e-05
0.00376121
0.00473118
0.00541629
0.00581068
0.00581886
0.00554572
0.00491009
0.00444239
0.00386528
0.00354138
0.00351824
0.00338573
0.00356022
0.00379366
0.00412198
0.00406205
0.00387191
0.00336109
0.00224942
0.00135526
0.00342506
0.00412267
0.00489496
0.00536559
0.0056071
0.00498382
0.00438278
0.00420038
0.00364224
0.00336593
0.00325229
0.00317497
0.00337013
0.00364332
0.00368128
0.00384585
0.00352761
0.00296857
0.00204487
0.000976987
0.00306178
0.00366247
0.00436304
0.00483198
0.00468074
0.00435421
0.0039806
0.00358547
0.00322242
0.00270665
0.00287076
0.00269823
0.00274639
0.00325109
0.0032394
0.00342946
0.00312993
0.002598
0.00200229
0.00122853
0.00251308
0.00316439
0.00370343
0.00403436
0.00397753
0.00366775
0.00339216
0.00307256
0.00274784
0.00238777
0.00222689
0.00238332
0.00238705
0.00263862
0.00266161
0.00276312
0.00258215
0.0022472
0.00151399
0.000707881
0.00180979
0.00246605
0.0030395
0.00315482
0.00317915
0.00274365
0.00244361
0.00230306
0.00202795
0.00187953
0.00175343
0.0018394
0.00179326
0.00209942
0.00223212
0.00225577
0.00189989
0.00179779
0.00113486
0.000620351
0.00146211
0.00186565
0.00215108
0.00247859
0.00234304
0.00202363
0.00190044
0.00189492
0.00150629
0.00141368
0.00138129
0.00127893
0.00145387
0.0014746
0.0016191
0.00150225
0.00141553
0.00119845
0.000870808
0.000625623
0.000983612
0.00116298
0.00115451
0.00140312
0.00134701
0.00161541
0.00126086
0.000962104
0.000901971
0.0010031
0.00103783
0.000784976
0.000794816
0.000939561
0.00110449
0.00100156
0.0010341
0.00068802
0.000574874
0.000433814
0.000398445
0.000481357
0.000547943
0.000713031
0.000404393
0.000307633
0.000263879
0.000467488
0.000291516
0.000463101
0.00029587
0.00017201
0.000307543
0.000302834
0.000308839
0.000263581
0.000308148
2.02164e-05
6.16262e-05
0.000192989
0.00266424
0.00384613
0.00479028
0.00546931
0.00558868
0.0057449
0.00523162
0.00489723
0.0045884
0.00414371
0.00381286
0.00403507
0.00423837
0.00431403
0.00411221
0.00392377
0.00361852
0.0028371
0.00148424
0.000400281
0.00226199
0.00349202
0.00450729
0.005013
0.00492598
0.00489254
0.00459691
0.0042772
0.00399586
0.0038253
0.00374493
0.00361153
0.00360559
0.00359292
0.00388631
0.00368453
0.00319465
0.00237535
0.00138727
0.00032571
0.00226592
0.0028411
0.00364574
0.00418588
0.00457367
0.00429508
0.00402328
0.00369795
0.00359185
0.00349869
0.00322665
0.00307715
0.0032272
0.00332049
0.00332665
0.00299193
0.00276201
0.0024079
0.0013386
0.00018233
0.00192645
0.00260655
0.00306698
0.00362938
0.0038619
0.00381967
0.00363632
0.00344292
0.00297913
0.00285855
0.00285468
0.00259528
0.00265367
0.00274981
0.0029232
0.00271088
0.00241065
0.00200337
0.000943684
0.000175869
0.00136008
0.00223206
0.00264974
0.00293173
0.00336781
0.00295382
0.00300909
0.00269011
0.00242773
0.00234357
0.00231242
0.00218712
0.00217096
0.00222833
0.00233896
0.00227776
0.00208339
0.0013919
0.000821128
0.000185076
0.00138564
0.00143589
0.00190783
0.00225245
0.0021754
0.00214522
0.00200441
0.00193351
0.00161886
0.00169549
0.00153357
0.00149108
0.0016221
0.00156739
0.00161566
0.00155947
0.00144808
0.00104436
0.000489418
0.000303295
0.000651656
0.000757041
0.00115042
0.0014718
0.00151544
0.00131634
0.00126744
0.00127027
0.000947176
0.00111804
0.00090761
0.00108359
0.000828771
0.00112943
0.000955701
0.000997543
0.000875261
0.000698444
0.00026621
8.53785e-05
0.000129662
0.00051601
0.000364244
0.000424433
0.000349529
0.000426601
0.000245636
0.000371148
0.000361327
0.00025426
0.000500964
0.000491965
7.84022e-05
0.000418256
0.000233811
0.000432139
0.000313056
0.000349477
6.40693e-05
5.88616e-05
0.000655876
0.00208405
0.00363498
0.00453327
0.00473852
0.00471918
0.0048572
0.00457726
0.00426121
0.00395503
0.00407175
0.00373157
0.00377037
0.00410642
0.0035343
0.00324929
0.00228679
0.00132933
3.74091e-05
0.00155586
0.000893692
0.00221622
0.00321196
0.00398697
0.004286
0.00432304
0.00427301
0.00410052
0.00394556
0.00370854
0.00351482
0.00349184
0.00346991
0.00345781
0.00304745
0.00280913
0.00194513
0.00126876
0.000179117
0.00124765
0.00102277
0.00192936
0.00301232
0.00358974
0.00390939
0.00407765
0.00386399
0.00367142
0.00345099
0.00334908
0.00322845
0.00306383
0.00325057
0.00312857
0.00288147
0.0025799
0.00194563
0.00117592
0.000240116
0.000932119
0.000835872
0.0015949
0.00243921
0.00307895
0.00317242
0.00333962
0.00327977
0.00312173
0.0028353
0.00276631
0.00269005
0.00278524
0.00247179
0.00265449
0.0026759
0.00201998
0.00170738
0.000980879
0.000141476
0.000783623
0.000681005
0.00138005
0.00184515
0.0024268
0.00256231
0.00260324
0.00255355
0.00257043
0.0021558
0.00214167
0.00218954
0.00228579
0.00197373
0.00200224
0.00191105
0.0017576
0.00142128
0.000833838
0.000453631
0.000539688
0.000410539
0.00112853
0.00155485
0.00177671
0.00177678
0.00174751
0.00202949
0.00198058
0.00172495
0.00195393
0.00155132
0.00164706
0.0015584
0.00165222
0.00147227
0.00136738
0.000821344
0.000674076
0.000144636
0.000391808
0.000327664
0.000570114
0.000881998
0.00127081
0.00129327
0.0012185
0.00123722
0.00126966
0.00116179
0.00117542
0.000814489
0.000978998
0.000875455
0.000830934
0.00103967
0.000726712
0.000587401
0.000141414
4.40961e-05
0.000306491
4.12253e-05
0.000249669
0.00026647
0.000646118
0.000496667
0.000438014
0.000177758
0.000479356
0.00043523
0.000328473
0.000724209
0.000400212
0.000240925
0.000402993
0.000314775
0.000397991
7.11856e-07
0.000226501
0.000140645
1.20663e-05
0.00162619
1.55352e-05
0.00146843
0.00238404
0.00328584
0.00365664
0.00381097
0.00363575
0.0035002
0.00338137
0.00335448
0.00316711
0.00293444
0.00266389
0.00239972
0.00165575
0.000681441
0.000472661
0.00203046
0.00368865
0.00106566
0.000285283
0.00137624
0.00244469
0.00287297
0.00326047
0.00352453
0.00322555
0.00308076
0.00296308
0.00297225
0.00279278
0.00294426
0.00251449
0.0021272
0.00172418
0.000790381
0.000423683
0.00184962
0.0031109
0.00095959
0.000185954
0.00139282
0.001867
0.0024774
0.00283069
0.00292617
0.00300134
0.00279513
0.00289537
0.00267096
0.00256305
0.00241437
0.00222728
0.00199808
0.00123178
0.00068035
0.000528403
0.00155996
0.00282864
0.000631746
0.000249923
0.00106448
0.00181643
0.00231524
0.00244621
0.00234226
0.0024808
0.00226874
0.00241462
0.0022164
0.00197007
0.00203805
0.00182174
0.00149796
0.00112989
0.000518664
0.000459434
0.00118225
0.00217915
0.000289242
0.000178477
0.000781129
0.00151545
0.00194506
0.00196444
0.00209397
0.0019178
0.00187342
0.0018572
0.00176874
0.00187283
0.00162674
0.00164201
0.00118096
0.0011013
0.000298302
0.000158775
0.00108839
0.00152076
0.000274715
9.19799e-05
0.000556493
0.00104413
0.00143117
0.00163752
0.00159732
0.00145765
0.00131653
0.00150293
0.00121056
0.00115039
0.00135297
0.000985565
0.000987248
0.00107347
0.000338282
0.000165026
0.000703997
0.001205
9.52559e-05
0.000183972
0.000454415
0.000781328
0.00111331
0.000853083
0.000738519
0.000997766
0.000896953
0.000849374
0.000742106
0.000730375
0.000779123
0.000848099
0.000574318
0.000381979
0.000244336
4.84447e-05
0.000472622
0.000545906
0.000277214
8.83232e-05
0.000136101
0.000227006
0.000448064
0.000115451
0.000414585
0.000429685
0.000172169
0.000228884
0.000342644
0.000170886
0.000343514
0.000178578
3.56144e-05
0.000219745
0.00020267
0.000239267
0.000121755
8.86635e-05
0.00439662
0.00266778
0.00116751
5.89042e-05
0.0010447
0.00166313
0.00192356
0.00193967
0.00181869
0.00212523
0.00167181
0.00140237
0.0013113
0.000760917
0.00015498
0.000464778
0.00164211
0.00310769
0.00496083
0.00658613
0.00374363
0.00236821
0.00115322
0.000114835
0.000972617
0.0013462
0.00174154
0.00186185
0.0019372
0.00189587
0.00150499
0.00153077
0.00112577
0.000755428
0.00040678
0.000365525
0.00134244
0.00259368
0.00430671
0.00571625
0.00304565
0.00207133
0.000834002
0.000160374
0.000910399
0.00127342
0.00183765
0.00157183
0.00170994
0.00156296
0.00163322
0.00133778
0.00113151
0.000992185
0.00021618
0.000253797
0.00114755
0.00211734
0.00367073
0.004818
0.00270907
0.0017406
0.000383179
0.00030327
0.000977995
0.00114805
0.00133668
0.00140419
0.00141149
0.00116671
0.00118258
0.00104362
0.000893744
0.00052778
0.000132344
0.000128685
0.00104635
0.00197465
0.00302686
0.00407427
0.00204992
0.00128209
0.000439625
4.3038e-05
0.000623828
0.00088474
0.000969434
0.00114224
0.000956328
0.00126599
0.000905643
0.00112105
0.000873602
0.000540672
0.000254521
0.000189331
0.000688758
0.00149472
0.0023067
0.00331692
0.00139663
0.000953982
0.000516794
3.83023e-05
0.000681543
0.000716677
0.000860123
0.000918633
0.000979861
0.000719934
0.000777499
0.000838013
0.000420362
0.000273346
0.000195293
0.000167202
0.000608132
0.00118481
0.00167319
0.00236493
0.00083888
0.000562085
0.000133207
0.000120906
0.000164287
0.000270095
0.00042033
0.0003369
0.000554554
0.000566844
0.000606644
0.000592307
0.000192062
0.000261498
1.01603e-05
1.33999e-05
0.000388289
0.000732565
0.00119903
0.00146281
0.000197481
0.000149392
0.000188438
3.00345e-05
1.06746e-05
1.40119e-05
0.000285391
0.000245266
0.000265
0.00014552
1.39846e-06
1.9664e-05
0.000319988
0.000103886
0.000137123
2.48505e-06
0.000276066
0.000170878
0.000291375
0.000266407
0.00801063
0.00626446
0.00455311
0.00299086
0.00184494
0.000999894
0.000614067
0.000302232
0.000537793
0.000368134
0.000493168
0.00101883
0.00127127
0.0015863
0.00242813
0.00353506
0.00451349
0.006307
0.00833082
0.0102443
0.00705241
0.00551115
0.00394396
0.00265334
0.00162641
0.000894178
0.000386679
0.000308907
0.000204011
0.000339615
0.000307136
0.000606884
0.000913106
0.00142066
0.00209013
0.00304092
0.0041263
0.00551137
0.00734248
0.00896741
0.00578272
0.00466452
0.00339859
0.0022735
0.00116864
0.000759207
0.000442206
0.000111588
0.000163411
0.000111129
1.98671e-05
0.000309989
0.000902081
0.0012277
0.00170716
0.00266319
0.00341114
0.00480264
0.00639586
0.00756642
0.00485471
0.00390044
0.00262571
0.00168516
0.000920928
0.000648819
0.00035161
4.39485e-05
8.99184e-05
6.74425e-05
0.000216876
0.00023204
0.000724443
0.000993337
0.00148305
0.00199383
0.00271273
0.00398318
0.00534652
0.00644692
0.003939
0.00304535
0.00219938
0.00143695
0.000825254
0.000357958
0.000358706
0.000250305
4.51994e-05
5.24563e-05
4.94976e-05
0.000273537
0.000591911
0.000609795
0.00114844
0.00156469
0.00242585
0.00307756
0.00413793
0.00491603
0.0028074
0.00194693
0.00152075
0.00097316
0.000627164
0.000234752
0.000225852
6.01377e-05
9.52174e-05
2.178e-05
0.000272039
0.000105648
0.00025505
0.000585914
0.000825227
0.0010918
0.00142663
0.00224941
0.00284742
0.00345881
0.00167174
0.00113592
0.0006982
0.000595172
0.000337054
0.000137007
6.82911e-05
4.49988e-05
0.000120255
0.000110475
0.00018374
0.000188682
0.000251425
0.00047325
0.000562538
0.00047768
0.00088675
0.00130568
0.00167461
0.00218013
0.000545469
0.000387386
0.000453669
9.15514e-05
0.000310452
0.000200597
0.000158992
0.000129867
6.22586e-05
8.15163e-05
7.08517e-05
0.000145057
6.74734e-05
0.000134286
3.35302e-05
0.000163417
0.000394976
0.000787285
0.000643207
0.00107181
0.0125092
0.0104118
0.00847551
0.00681321
0.00552583
0.00466323
0.00401675
0.0035633
0.00352147
0.00350274
0.00361756
0.0039184
0.0042042
0.00484745
0.00576268
0.00702842
0.0084195
0.0101709
0.012235
0.0143496
0.010976
0.00921046
0.00755916
0.00597769
0.00472564
0.00407557
0.00376436
0.00315157
0.00306943
0.00301317
0.0031284
0.00310587
0.00382741
0.00434471
0.0049462
0.00597097
0.00753023
0.00907499
0.0109875
0.0127127
0.00929647
0.007709
0.00624901
0.00513952
0.0041967
0.00351902
0.00294677
0.00257045
0.00240188
0.00252346
0.00251232
0.00302734
0.00322445
0.0036838
0.00440604
0.00518123
0.0063519
0.00789322
0.00942695
0.0109535
0.00755808
0.00645406
0.00504979
0.00429745
0.00339181
0.00284537
0.00235997
0.00210452
0.00210823
0.00190523
0.00216228
0.00229239
0.00264395
0.00320023
0.00364428
0.00430235
0.00541239
0.00638945
0.00769064
0.00887715
0.00577924
0.00518675
0.00419125
0.00335456
0.00257583
0.00223094
0.00198863
0.00171222
0.0016114
0.00136303
0.00173595
0.00197057
0.00194743
0.0024262
0.00268803
0.00368719
0.00416208
0.00516785
0.00629819
0.00716898
0.00426968
0.00396971
0.00307813
0.00230726
0.00197435
0.00150235
0.00104229
0.00118048
0.00115805
0.000917455
0.00108025
0.00125848
0.00150611
0.00178579
0.0019735
0.00255804
0.00325955
0.00362832
0.00461869
0.00502249
0.0024495
0.00226686
0.00181679
0.00156949
0.0012234
0.00110942
0.000625306
0.000603083
0.000625362
0.000616674
0.000684672
0.000803141
0.00117156
0.00107667
0.00131844
0.00151149
0.00181371
0.00225721
0.00286308
0.00327641
0.000646288
0.00064612
0.000549234
0.000610195
0.000294508
0.000323888
0.000146663
0.000181111
5.82749e-05
0.000229275
1.3731e-05
0.000142381
0.000135299
0.000277121
0.000365275
0.000443022
0.000678811
0.000758342
0.00112185
0.000951826
0.0171058
0.0151671
0.0130089
0.0115246
0.00994024
0.00882674
0.00801715
0.00758968
0.00730102
0.00734793
0.00718302
0.00770725
0.00828799
0.00884469
0.00987052
0.0111155
0.0128483
0.0147686
0.0169078
0.0192647
0.0150241
0.0133277
0.0115734
0.00998837
0.00864338
0.00760093
0.00698362
0.00658114
0.00641759
0.00632514
0.00624117
0.00673923
0.00694715
0.00782028
0.00867755
0.00976693
0.0113202
0.0130888
0.0151774
0.0169576
0.0127087
0.0114972
0.00984229
0.00873642
0.00732787
0.0063984
0.00595235
0.00558775
0.00542753
0.00529283
0.00562899
0.005836
0.00626773
0.00683743
0.00753577
0.00851534
0.00978499
0.0113374
0.0130271
0.0146291
0.0107155
0.00931538
0.00821692
0.00707705
0.00626531
0.0055181
0.00485946
0.00469109
0.00465253
0.00436475
0.00453849
0.00480286
0.00510855
0.00594601
0.00621958
0.00710965
0.00805646
0.00958704
0.0106936
0.0121083
0.00844293
0.00728256
0.00648482
0.00573181
0.0050082
0.00441994
0.00391687
0.0037471
0.00326135
0.00354842
0.00355085
0.00410441
0.0041373
0.00443352
0.00495916
0.00556711
0.00629754
0.00747829
0.0086694
0.00973443
0.00606121
0.00552067
0.0045701
0.00411185
0.0035002
0.0032063
0.00292831
0.00273713
0.00252566
0.00261238
0.00288365
0.00264501
0.0029024
0.00327384
0.00339553
0.00436873
0.0047212
0.00543576
0.00642877
0.00701633
0.00362218
0.0033527
0.00288457
0.00266344
0.00231331
0.00186945
0.00171307
0.00163984
0.00147612
0.00152425
0.00159117
0.00156464
0.00176353
0.00211882
0.00215277
0.00241173
0.00294119
0.00323842
0.00395903
0.00418676
0.00131873
0.00119841
0.000667394
0.000883056
0.000765195
0.000399591
0.000614008
0.000528961
0.000534501
0.000599797
0.000407893
0.000641462
0.000658733
0.000523303
0.000843192
0.000854988
0.00120466
0.00131431
0.00133621
0.00136828
0.0228152
0.0206559
0.0183087
0.0161563
0.014933
0.0136621
0.0124974
0.0120435
0.0117619
0.0115785
0.0118646
0.0122844
0.0127546
0.0135619
0.0145832
0.0161454
0.0178689
0.0199662
0.0224265
0.0246132
0.0197394
0.0180235
0.0161684
0.0143678
0.0129438
0.0118944
0.0111724
0.010418
0.0103808
0.0102983
0.0104766
0.0105937
0.0113537
0.0119387
0.0130237
0.0140497
0.0156174
0.0176171
0.0197376
0.0214603
0.0167982
0.0153882
0.0137839
0.0123092
0.0110065
0.0103474
0.00962085