/*--------------------------------*- C++ -*----------------------------------*\
| =========                 |                                                 |
| \\      /  F ield         | OpenFOAM: The Open Source CFD Toolbox           |
|  \\    /   O peration     | Version:  2212                                  |
|   \\  /    A nd           | Website:  www.openfoam.com                      |
|    \\/     M anipulation  |                                                 |
\*---------------------------------------------------------------------------*/
FoamFile
{
    version     2.0;
    format      ascii;
    arch        "LSB;label=32;scalar=64";
    class       volScalarField;
    location    "0";
    object      stateMean;
}
// * * * * * * * * * * * * * * * * * * * * * * * * * * * * * * * * * * * * * //

dimensions      [0 0 0 1 0 0 0];

internalField   nonuniform List<scalar> 
3200
(
342.201
343.117
344.008
344.836
345.526
346.185
346.62
347.044
347.258
347.244
347.229
347.05
346.739
346.222
345.628
344.959
344.125
343.148
342.084
341.285
336.721
337.402
338.162
338.946
339.577
340.161
340.453
340.788
340.978
341.081
341.035
340.874
340.557
340.118
339.565
338.931
338.297
337.495
336.642
335.927
331.129
331.744
332.439
333.057
333.536
334.031
334.373
334.65
334.736
334.789
334.763
334.604
334.39
334.017
333.644
333.03
332.445
331.731
331.066
330.478
325.546
326.011
326.49
327.015
327.583
327.834
328.123
328.392
328.511
328.504
328.461
328.358
328.205
327.88
327.553
327.077
326.593
326.05
325.442
324.936
319.885
320.274
320.697
321.079
321.45
321.707
321.87
322.129
322.183
322.208
322.206
322.098
321.938
321.803
321.457
321.127
320.709
320.237
319.868
319.455
314.262
314.519
314.9
315.063
315.386
315.56
315.698
315.803
315.889
315.866
315.802
315.752
315.682
315.56
315.362
315.057
314.865
314.538
314.181
313.951
308.571
308.688
308.899
309.085
309.228
309.417
309.376
309.5
309.523
309.559
309.586
309.453
309.4
309.329
309.208
309.037
308.936
308.765
308.454
308.322
302.798
302.922
302.985
302.997
303.113
303.11
303.146
303.13
303.299
303.24
303.213
303.173
303.148
303.146
303.129
303.066
302.975
302.857
302.914
302.776
342.995
343.86
344.783
345.731
346.4
347.009
347.491
347.916
348.058
348.176
348.095
347.887
347.577
347.056
346.438
345.788
344.943
343.938
343.011
342.042
337.347
338.08
338.936
339.511
340.266
340.77
341.194
341.536
341.68
341.74
341.801
341.581
341.252
340.79
340.298
339.774
339.026
338.17
337.201
336.58
331.667
332.244
333.017
333.548
334.109
334.543
334.866
335.135
335.349
335.412
335.301
335.236
334.959
334.534
334.223
333.638
332.982
332.331
331.572
330.903
325.92
326.388
327.024
327.45
328.003
328.317
328.602
328.836
328.887
328.919
328.918
328.828
328.621
328.362
327.932
327.579
327.041
326.491
325.876
325.376
320.228
320.528
320.948
321.4
321.742
322.018
322.287
322.477
322.605
322.54
322.492
322.449
322.274
322.103
321.827
321.447
321.072
320.584
320.131
319.776
314.474
314.76
314.949
315.313
315.562
315.762
315.946
316.074
316.079
316.152
316.186
316.002
315.897
315.752
315.567
315.345
315.07
314.754
314.439
314.19
308.68
308.778
309.066
309.169
309.296
309.455
309.586
309.663
309.654
309.646
309.668
309.611
309.557
309.533
309.333
309.248
309.095
308.835
308.658
308.443
302.939
302.995
303.036
303.074
303.122
303.213
303.15
303.207
303.241
303.254
303.206
303.225
303.272
303.141
303.156
303.086
303.06
302.963
302.889
302.875
344.042
344.946
345.88
346.8
347.533
348.139
348.688
349.083
349.214
349.368
349.228
349.001
348.705
348.176
347.634
346.906
346.047
345.031
344.02
343.067
338.205
338.975
339.813
340.56
341.192
341.687
342.23
342.518
342.691
342.816
342.668
342.548
342.263
341.791
341.275
340.678
339.958
339.101
338.175
337.396
332.465
333.001
333.679
334.373
334.944
335.351
335.786
335.973
336.208
336.246
336.135
336.013
335.751
335.415
334.909
334.38
333.778
333.047
332.291
331.67
326.541
327.084
327.567
328.115
328.606
328.942
329.227
329.52
329.621
329.678
329.595
329.447
329.249
329.003
328.683
328.154
327.709
327.116
326.506
325.886
320.719
321.032
321.515
321.879
322.217
322.498
322.736
322.906
323.042
323.103
323
322.911
322.785
322.549
322.259
322.008
321.59
321.105
320.614
320.201
314.734
315.114
315.321
315.687
315.942
316.06
316.333
316.352
316.464
316.506
316.49
316.417
316.256
316.08
315.911
315.696
315.42
315.126
314.76
314.44
308.909
309.082
309.215
309.428
309.587
309.72
309.852
309.918
309.904
309.913
309.893
309.79
309.785
309.715
309.533
309.398
309.208
309.005
308.854
308.725
302.985
303.002
303.121
303.138
303.22
303.217
303.291
303.272
303.263
303.369
303.282
303.315
303.306
303.304
303.206
303.219
303.128
303.007
302.977
302.916
345.19
346.027
346.963
347.91
348.735
349.441
349.805
350.192
350.48
350.592
350.481
350.34
349.963
349.418
348.837
348.112
347.186
346.169
345.09
344.186
339.13
339.924
340.754
341.545
342.241
342.824
343.208
343.57
343.751
343.924
343.727
343.569
343.313
342.88
342.316
341.764
340.887
340.032
339.176
338.309
333.1
333.774
334.453
335.235
335.755
336.248
336.606
336.929
337.095
337.164
337.079
336.895
336.706
336.341
335.823
335.338
334.66
333.909
333.209
332.445
327.219
327.688
328.217
328.824
329.286
329.626
329.999
330.196
330.292
330.346
330.395
330.211
330.074
329.67
329.377
328.801
328.447
327.773
327.087
326.594
321.139
321.501
321.955
322.361
322.799
323.113
323.332
323.448
323.651
323.695
323.603
323.528
323.328
323.112
322.869
322.48
322.026
321.578
321.032
320.7
315.122
315.432
315.775
316.072
316.286
316.471
316.674
316.77
316.931
316.945
316.905
316.784
316.637
316.516
316.314
316.045
315.772
315.403
315.07
314.806
309.073
309.193
309.397
309.575
309.786
309.942
309.971
310.126
310.174
310.146
310.116
310.101
309.995
309.931
309.796
309.62
309.453
309.246
309.041
308.952
303.037
303.065
303.166
303.251
303.322
303.337
303.377
303.39
303.393
303.413
303.419
303.377
303.353
303.334
303.205
303.23
303.187
303.16
303.166
302.983
346.225
347.087
348.13
349.139
349.929
350.543
351.125
351.421
351.713
351.813
351.699
351.499
351.145
350.744
350.037
349.251
348.385
347.298
346.295
345.29
340.102
340.882
341.751
342.508
343.246
343.831
344.302
344.641
344.858
344.899
344.827
344.618
344.391
343.849
343.392
342.73
341.902
341.032
340.05
339.253
333.938
334.565
335.292
335.985
336.529
337.124
337.528
337.779
337.909
338
337.978
337.797
337.558
337.121
336.671
336.213
335.521
334.687
333.962
333.297
327.811
328.374
328.909
329.439
329.988
330.409
330.756
330.897
331.075
331.077
331.116
330.962
330.789
330.466
330.047
329.633
329.114
328.408
327.775
327.226
321.589
322.074
322.6
322.939
323.315
323.528
323.851
324.035
324.221
324.172
324.227
324.093
323.926
323.725
323.39
323.056
322.623
322.163
321.619
321.23
315.482
315.778
316.124
316.42
316.683
316.92
317.02
317.2
317.374
317.348
317.302
317.222
317.103
317.01
316.67
316.438
316.189
315.827
315.448
315.09
309.24
309.444
309.746
309.864
310.015
310.196
310.221
310.34
310.366
310.407
310.391
310.322
310.286
310.162
310.01
309.852
309.683
309.48
309.265
309.165
303.084
303.185
303.229
303.321
303.356
303.47
303.423
303.5
303.485
303.506
303.488
303.459
303.483
303.408
303.342
303.313
303.199
303.192
303.097
303.069
347.218
348.242
349.185
350.178
351.012
351.755
352.271
352.67
352.884
352.911
352.979
352.737
352.425
351.865
351.184
350.416
349.54
348.504
347.29
346.279
340.957
341.834
342.66
343.513
344.253
344.832
345.397
345.682
345.906
345.89
345.914
345.746
345.437
344.955
344.351
343.697
342.965
341.94
341.045
340.22
334.751
335.42
336.164
336.83
337.406
337.96
338.395
338.681
338.797
338.93
338.862
338.604
338.456
338.051
337.623
336.943
336.349
335.54
334.765
333.988
328.454
328.991
329.574
330.177
330.674
331.154
331.391
331.591
331.821
331.791
331.796
331.71
331.503
331.132
330.744
330.255
329.727
329.119
328.418
327.892
322.111
322.543
323.036
323.479
323.889
324.147
324.457
324.674
324.69
324.767
324.757
324.671
324.475
324.167
324
323.518
323.095
322.654
322.084
321.678
315.832
316.09
316.432
316.741
317.089
317.262
317.451
317.551
317.69
317.725
317.687
317.641
317.511
317.338
317.08
316.842
316.549
316.205
315.776
315.514
309.542
309.723
309.876
310.086
310.214
310.394
310.491
310.619
310.577
310.656
310.659
310.576
310.504
310.406
310.339
310.054
309.97
309.784
309.568
309.386
303.162
303.225
303.289
303.383
303.373
303.498
303.55
303.523
303.603
303.573
303.513
303.534
303.514
303.48
303.443
303.451
303.294
303.272
303.262
303.138
348.208
349.204
350.214
351.217
352.105
352.855
353.354
353.809
353.952
354.14
354.08
353.852
353.496
353.023
352.313
351.511
350.587
349.512
348.385
347.276
341.823
342.642
343.552
344.535
345.205
345.812
346.363
346.655
346.881
346.932
346.994
346.632
346.366
345.926
345.336
344.692
343.829
342.924
341.96
340.997
335.463
336.196
336.905
337.642
338.25
338.776
339.178
339.463
339.715
339.684
339.645
339.411
339.359
338.888
338.451
337.862
337.128
336.324
335.476
334.793
328.984
329.565
330.245
330.815
331.341
331.768
332.057
332.345
332.455
332.506
332.532
332.307
332.151
331.904
331.411
330.918
330.314
329.721
329.051
328.461
322.6
323.068
323.593
323.973
324.387
324.639
324.935
325.125
325.197
325.321
325.222
325.169
324.973
324.767
324.466
324.07
323.574
323.161
322.648
322.223
316.108
316.434
316.801
317.073
317.419
317.669
317.812
317.936
318.081
318.11
318.056
317.948
317.843
317.702
317.445
317.193
316.876
316.492
316.112
315.857
309.735
309.928
310.1
310.307
310.46
310.549
310.8
310.775
310.901
310.813
310.861
310.722
310.675
310.616
310.487
310.359
310.07
309.982
309.735
309.561
303.259
303.343
303.297
303.462
303.486
303.584
303.586
303.57
303.698
303.699
303.643
303.686
303.59
303.508
303.547
303.518
303.394
303.298
303.232
303.172
349.253
350.178
351.165
352.195
353.125
353.909
354.452
354.832
355.066
355.252
355.184
355.015
354.542
354.024
353.333
352.525
351.566
350.361
349.362
348.301
342.607
343.521
344.396
345.305
346.029
346.723
347.152
347.561
347.82
347.926
347.821
347.628
347.276
346.883
346.3
345.578
344.769
343.75
342.733
341.869
336.107
336.845
337.617
338.38
338.982
339.503
339.906
340.213
340.427
340.523
340.497
340.287
340.057
339.718
339.159
338.582
337.78
337.063
336.173
335.486
329.582
330.123
330.786
331.436
331.92
332.349
332.695
332.996
333.118
333.23
333.153
332.949
332.778
332.427
332.036
331.516
330.957
330.294
329.583
329.07
323.007
323.495
323.982
324.421
324.818
325.134
325.457
325.734
325.797
325.783
325.825
325.702
325.497
325.312
324.94
324.572
324.128
323.548
323.041
322.59
316.504
316.829
317.185
317.462
317.711
317.97
318.212
318.378
318.429
318.453
318.429
318.384
318.221
318.032
317.772
317.525
317.221
316.926
316.474
316.101
309.94
310.083
310.31
310.474
310.652
310.798
310.866
311.036
311.096
311.068
311.032
311.012
311.006
310.852
310.7
310.545
310.38
310.086
309.898
309.716
303.374
303.437
303.449
303.543
303.643
303.649
303.609
303.652
303.736
303.747
303.718
303.705
303.657
303.665
303.61
303.549
303.521
303.374
303.316
303.217
350.04
351.047
352.125
353.155
354.054
354.815
355.363
355.837
356.09
356.214
356.206
355.92
355.524
354.969
354.312
353.436
352.474
351.405
350.18
349.201
343.414
344.219
345.207
346.14
347
347.527
347.987
348.478
348.679
348.79
348.751
348.517
348.19
347.731
347.077
346.392
345.508
344.545
343.507
342.576
336.781
337.452
338.297
339.107
339.712
340.229
340.667
341
341.211
341.21
341.266
341.033
340.715
340.419
339.851
339.289
338.532
337.702
336.894
336.165
330.088
330.681
331.355
331.997
332.514
332.925
333.295
333.57
333.735
333.758
333.704
333.613
333.342
333.044
332.591
332.112
331.517
330.874
330.137
329.494
323.351
323.853
324.422
324.874
325.298
325.556
325.816
326.067
326.19
326.253
326.212
326.129
325.901
325.704
325.39
324.998
324.467
324.02
323.423
322.967
316.733
317.066
317.43
317.83
318.085
318.267
318.484
318.694
318.721
318.771
318.761
318.649
318.553
318.349
318.138
317.818
317.493
317.129
316.752
316.469
310.079
310.256
310.418
310.672
310.833
311.088
311.131
311.165
311.237
311.316
311.327
311.201
311.113
311.031
310.929
310.726
310.558
310.273
310.074
309.908
303.398
303.463
303.538
303.648
303.614
303.641
303.68
303.784
303.762
303.83
303.779
303.725
303.735
303.692
303.642
303.571
303.526
303.378
303.298
303.336
350.824
351.866
352.981
354.05
354.922
355.767
356.294
356.76
357.067
357.126
357.008
356.87
356.526
355.969
355.19
354.334
353.398
352.295
351.038
350.032
344.025
344.979
346.005
346.897
347.586
348.259
348.769
349.163
349.426
349.555
349.527
349.292
348.93
348.42
347.91
347.156
346.27
345.27
344.256
343.361
337.367
338.001
338.841
339.631
340.369
340.853
341.28
341.596
341.864
341.991
341.899
341.688
341.435
341.041
340.524
339.833
339.149
338.423
337.494
336.665
330.592
331.171
331.786
332.468
333.042
333.501
333.864
334.148
334.243
334.333
334.332
334.115
333.886
333.569
333.203
332.66
332.065
331.435
330.622
330.014
323.747
324.3
324.795
325.272
325.8
326.032
326.38
326.547
326.655
326.729
326.719
326.577
326.378
326.126
325.832
325.446
324.997
324.388
323.844
323.367
317.096
317.304
317.71
318.094
318.345
318.598
318.788
318.959
318.997
319.093
319.042
318.956
318.859
318.649
318.43
318.149
317.839
317.436
317.004
316.753
310.208
310.355
310.631
310.895
311.075
311.17
311.296
311.413
311.395
311.491
311.425
311.437
311.276
311.253
311.058
310.914
310.71
310.491
310.203
309.98
303.393
303.549
303.555
303.628
303.66
303.737
303.729
303.806
303.831
303.812
303.887
303.87
303.717
303.781
303.678
303.685
303.594
303.55
303.411
303.372
351.435
352.523
353.797
354.883
355.719
356.435
357.13
357.561
357.825
357.913
357.955
357.637
357.274
356.863
356.015
355.191
354.089
352.985
351.803
350.659
344.692
345.643
346.616
347.548
348.314
348.953
349.495
349.894
350.166
350.253
350.186
350.008
349.674
349.211
348.51
347.801
346.841
345.944
344.817
343.954
337.907
338.625
339.521
340.278
340.946
341.533
341.933
342.255
342.456
342.565
342.524
342.324
342.111
341.683
341.126
340.494
339.721
338.899
338.054
337.247
331.015
331.598
332.309
332.98
333.469
333.958
334.324
334.588
334.718
334.813
334.787
334.702
334.371
334.116
333.737
333.085
332.525
331.825
331.117
330.48
324.136
324.616
325.102
325.647
326.047
326.397
326.681
326.933
326.973
327.06
327.076
327.016
326.739
326.501
326.172
325.786
325.321
324.774
324.316
323.74
317.221
317.629
318.003
318.328
318.581
318.812
319.117
319.277
319.321
319.459
319.331
319.296
319.143
318.997
318.725
318.451
318.024
317.723
317.317
316.967
310.368
310.55
310.79
311.064
311.223
311.344
311.479
311.594
311.636
311.679
311.567
311.579
311.471
311.352
311.288
311.047
310.851
310.56
310.359
310.171
303.454
303.553
303.606
303.772
303.778
303.809
303.773
303.9
303.911
303.892
304.012
303.901
303.827
303.841
303.772
303.748
303.576
303.594
303.434
303.437
352.094
353.218
354.406
355.437
356.456
357.248
357.888
358.304
358.595
358.729
358.719
358.476
358.054
357.479
356.8
355.877
354.834
353.719
352.496
351.367
345.282
346.21
347.169
348.152
348.907
349.612
350.212
350.522
350.765
350.877
350.88
350.665
350.424
349.86
349.217
348.507
347.578
346.545
345.471
344.575
338.306
339.076
339.976
340.655
341.375
341.977
342.439
342.816
342.994
343.157
343.08
342.915
342.615
342.2
341.693
340.95
340.251
339.324
338.484
337.673
331.403
332.003
332.673
333.346
333.931
334.37
334.686
335.019
335.152
335.306
335.239
335.052
334.871
334.512
334.054
333.536
332.915
332.166
331.528
330.889
324.5
324.888
325.394
325.961
326.428
326.741
327.056
327.221
327.365
327.442
327.413
327.365
327.126
326.909
326.485
326.153
325.565
325.088
324.476
324.1
317.488
317.772
318.14
318.53
318.887
319.172
319.353
319.468
319.536
319.654
319.56
319.483
319.435
319.158
318.965
318.773
318.306
317.911
317.519
317.192
310.527
310.714
310.93
311.173
311.416
311.466
311.548
311.725
311.76
311.782
311.748
311.708
311.657
311.582
311.38
311.189
311.006
310.774
310.51
310.387
303.623
303.599
303.658
303.733
303.847
303.79
303.92
303.957
303.901
303.93
303.964
303.901
303.93
303.848
303.766
303.778
303.726
303.544
303.535
303.512
352.728
353.845
354.998
356.082
357.071
357.889
358.51
358.947
359.208
359.475
359.313
359.059
358.722
358.094
357.35
356.532
355.476
354.308
353.032
351.953
345.749
346.653
347.612
348.614
349.466
350.114
350.711
351.126
351.415
351.538
351.401
351.273
350.868
350.365
349.785
348.998
348.106
347.11
345.98
345.064
338.778
339.462
340.335
341.149
341.872
342.435
343.015
343.24
343.51
343.575
343.599
343.383
343.089
342.726
342.073
341.474
340.703
339.898
338.918
338.176
331.677
332.284
333.104
333.721
334.329
334.745
335.124
335.405
335.59
335.603
335.608
335.467
335.234
334.854
334.405
333.959
333.271
332.574
331.855
331.223
324.677
325.146
325.706
326.165
326.652
327.016
327.291
327.548
327.629
327.803
327.685
327.683
327.46
327.151
326.81
326.386
325.926
325.362
324.812
324.265
317.667
317.962
318.305
318.698
319.115
319.326
319.548
319.71
319.831
319.8
319.818
319.786
319.551
319.36
319.159
318.845
318.492
318.093
317.733
317.359
310.618
310.796
311.052
311.185
311.402
311.554
311.707
311.767
311.896
311.931
311.943
311.908
311.722
311.657
311.473
311.347
311.102
310.865
310.598
310.424
303.587
303.633
303.661
303.771
303.808
303.841
303.967
303.984
304.01
303.984
303.94
303.935
304.006
303.912
303.887
303.806
303.678
303.666
303.59
303.566
353.207
354.294
355.473
356.622
357.611
358.454
359.068
359.565
359.752
359.954
359.909
359.579
359.217
358.719
357.942
357.005
356.078
354.847
353.557
352.411
346.124
347.055
348.093
349.056
349.918
350.643
351.233
351.594
351.867
351.941
351.953
351.725
351.382
350.87
350.223
349.422
348.541
347.545
346.416
345.456
339.135
339.843
340.69
341.509
342.311
342.849
343.306
343.703
343.884
344.005
344.036
343.833
343.431
343.036
342.523
341.799
341.119
340.21
339.252
338.527
332.016
332.598
333.361
334.031
334.635
335.05
335.435
335.77
335.918
336.01
335.96
335.87
335.542
335.22
334.771
334.275
333.687
332.908
332.115
331.485
324.881
325.375
325.914
326.439
326.909
327.315
327.536
327.752
327.946
328.044
328.043
327.871
327.64
327.454
327.056
326.667
326.116
325.627
325.019
324.563
317.803
318.22
318.544
318.916
319.22
319.526
319.688
319.907
319.949
320.033
319.939
319.945
319.806
319.573
319.337
319.071
318.772
318.311
317.933
317.596
310.711
310.962
311.212
311.363
311.559
311.73
311.847
311.931
312.038
311.994
311.971
311.941
311.867
311.72
311.598
311.515
311.272
311.022
310.795
310.552
303.599
303.675
303.693
303.843
303.816
303.885
303.93
303.965
304.003
304.057
304.054
303.978
303.983
303.937
303.936
303.86
303.751
303.592
303.598
303.439
353.509
354.687
355.902
357.037
358.023
358.82
359.479
359.987
360.244
360.376
360.335
360.1
359.755
359.179
358.424
357.482
356.459
355.293
354.034
352.85
346.405
347.385
348.413
349.436
350.33
350.981
351.46
351.975
352.214
352.342
352.301
352.201
351.737
351.255
350.674
349.891
348.89
347.881
346.762
345.796
339.331
340.175
341.055
341.831
342.54
343.13
343.64
344.023
344.259
344.309
344.313
344.043
343.798
343.386
342.825
342.202
341.415
340.491
339.586
338.763
332.256
332.867
333.648
334.222
334.842
335.319
335.739
336.031
336.176
336.319
336.232
336.114
335.85
335.456
335.051
334.536
333.848
333.198
332.452
331.814
325.169
325.549
326.115
326.641
327.142
327.483
327.762
328.014
328.16
328.301
328.178
328.042
327.937
327.618
327.333
326.778
326.376
325.796
325.185
324.714
317.973
318.2
318.656
319.083
319.365
319.679
319.969
320.04
320.128
320.247
320.195
320.096
319.935
319.731
319.528
319.178
318.779
318.48
317.992
317.732
310.851
310.986
311.23
311.414
311.628
311.762
311.999
312.075
312.117
312.144
312.123
312.061
311.897
311.858
311.697
311.538
311.338
311.092
310.801
310.593
303.697
303.723
303.787
303.805
303.936
303.961
304.042
304.056
304.109
304.065
304.139
304.084
304.07
304.003
303.948
303.891
303.784
303.723
303.578
303.604
353.904
354.993
356.246
357.27
358.315
359.156
359.83
360.292
360.612
360.706
360.766
360.464
360.038
359.53
358.777
357.89
356.791
355.61
354.365
353.127
346.753
347.682
348.711
349.694
350.579
351.327
351.877
352.286
352.531
352.66
352.69
352.417
352.156
351.581
350.946
350.182
349.223
348.176
347.03
346.072
339.657
340.348
341.265
342.005
342.839
343.482
343.917
344.269
344.482
344.61
344.494
344.341
344.033
343.61
343.089
342.429
341.643
340.749
339.822
338.996
332.42
333.113
333.766
334.443
335.002
335.517
335.969
336.211
336.354
336.518
336.459
336.303
336.07
335.603
335.281
334.717
334.113
333.305
332.649
331.952
325.25
325.801
326.282
326.758
327.219
327.618
327.962
328.163
328.423
328.381
328.38
328.146
328.034
327.792
327.44
327.035
326.572
325.956
325.346
324.826
318.08
318.375
318.836
319.146
319.502
319.743
319.96
320.124
320.265
320.274
320.187
320.227
320.071
319.849
319.682
319.223
318.951
318.559
318.084
317.775
310.894
311.051
311.291
311.459
311.664
311.891
312.017
312.101
312.196
312.203
312.182
312.169
312.063
311.89
311.802
311.634
311.372
311.181
310.861
310.718
303.63
303.691
303.884
303.851
303.919
304.06
304.02
304.067
304.08
304.068
304.126
304.048
304.028
304.048
303.926
303.892
303.754
303.687
303.649
303.615
354
355.14
356.424
357.648
358.519
359.373
360.139
360.577
360.872
361.037
360.932
360.681
360.318
359.751
359.038
358.078
357.025
355.822
354.497
353.349
346.955
347.865
348.897
349.92
350.796
351.51
352.063
352.569
352.749
352.863
352.8
352.673
352.236
351.79
351.108
350.403
349.476
348.383
347.258
346.346
339.823
340.562
341.433
342.269
343.035
343.554
344.057
344.451
344.661
344.713
344.734
344.569
344.22
343.868
343.209
342.666
341.798
340.874
340.02
339.14
332.494
333.173
333.888
334.596
335.201
335.708
336.052
336.359
336.587
336.729
336.578
336.533
336.24
335.819
335.36
334.795
334.258
333.531
332.813
332.099
325.319
325.75
326.351
326.907
327.418
327.759
328.106
328.254
328.46
328.51
328.485
328.465
328.166
327.996
327.574
327.095
326.592
326.06
325.502
324.973
318.079
318.435
318.823
319.222
319.59
319.86
320.069
320.202
320.373
320.424
320.399
320.307
320.156
320.047
319.697
319.352
319.046
318.624
318.211
317.867
310.868
311.121
311.292
311.547
311.752
311.857
312.101
312.132
312.232
312.288
312.22
312.211
312.07
312.024
311.854
311.673
311.442
311.249
310.972
310.706
303.608
303.733
303.783
303.87
303.88
304.023
304.032
304.105
304.173
304.088
304.123
304.058
304.051
304.017
303.998
303.866
303.882
303.727
303.687
303.524
354.126
355.357
356.62
357.674
358.739
359.53
360.249
360.779
361
361.178
361.067
360.857
360.446
359.934
359.068
358.243
357.197
355.919
354.718
353.463
347.043
347.977
349.014
350.011
350.919
351.628
352.178
352.567
352.866
353.045
352.975
352.777
352.417
351.924
351.264
350.528
349.557
348.429
347.415
346.317
339.875
340.646
341.491
342.332
343.069
343.679
344.125
344.497
344.857
344.808
344.855
344.64
344.349
343.957
343.472
342.71
341.966
341.12
340.058
339.266
332.588
333.276
333.943
334.742
335.226
335.843
336.196
336.492
336.623
336.719
336.709
336.542
336.436
336.003
335.52
334.954
334.297
333.591
332.835
332.142
325.458
325.836
326.382
327.002
327.456
327.819
328.164
328.319
328.526
328.567
328.512
328.505
328.27
328.012
327.638
327.239
326.718
326.144
325.604
325.058
318.171
318.454
318.916
319.233
319.693
319.854
320.146
320.293
320.385
320.426
320.449
320.386
320.196
320.023
319.681
319.38
319.07
318.724
318.294
317.861
310.906
311.06
311.381
311.659
311.761
311.99
312.052
312.205
312.28
312.278
312.279
312.182
312.138
312.085
311.838
311.691
311.515
311.224
310.985
310.782
303.67
303.749
303.823
303.903
303.981
304.016
304.154
304.041
304.097
304.095
304.027
304.045
304.072
304.071
303.982
303.831
303.782
303.77
303.637
303.661
354.171
355.396
356.644
357.722
358.782
359.573
360.303
360.747
361.033
361.231
361.248
360.953
360.543
359.95
359.239
358.382
357.208
356.021
354.687
353.588
347.074
348.077
349.091
350.108
350.936
351.665
352.244
352.655
352.943
353.08
353.063
352.874
352.555
351.98
351.299
350.51
349.599
348.529
347.396
346.516
339.849
340.687
341.572
342.47
343.159
343.765
344.154
344.561
344.845
344.991
344.85
344.746
344.435
343.983
343.391
342.792
341.946
341.124
340.199
339.395
332.616
333.285
333.977
334.686
335.195
335.795
336.239
336.585
336.707
336.771
336.765
336.675
336.275
336.03
335.518
335.063
334.427
333.651
332.818
332.195
325.428
325.917
326.496
326.993
327.395
327.852
328.156
328.384
328.534
328.653
328.539
328.479
328.35
328.036
327.631
327.271
326.756
326.191
325.541
325.077
318.175
318.522
318.862
319.249
319.672
319.9
320.064
320.3
320.409
320.402
320.469
320.35
320.193
320.038
319.73
319.417
319.088
318.698
318.271
318.011
310.892
311.211
311.395
311.56
311.831
312.016
312.055
312.257
312.278
312.367
312.305
312.209
312.148
312.043
311.938
311.652
311.459
311.187
311.015
310.771
303.643
303.714
303.834
303.863
303.913
304.03
304.041
304.07
304.096
304.119
304.087
304.062
304.021
304.068
303.974
303.913
303.84
303.749
303.624
303.554
354.213
355.316
356.575
357.734
358.708
359.602
360.342
360.793
361.095
361.153
361.168
360.965
360.505
360.004
359.253
358.313
357.24
356.083
354.706
353.477
347.025
347.951
349
350.075
350.932
351.681
352.318
352.739
352.962
353.128
353.029
352.851
352.462
351.96
351.328
350.584
349.608
348.521
347.452
346.445
339.793
340.664
341.559
342.394
343.134
343.744
344.201
344.562
344.841
344.925
344.882
344.712
344.417
344.003
343.471
342.758
342.003
341.149
340.233
339.388
332.577
333.179
333.971
334.718
335.258
335.843
336.203
336.542
336.677
336.771
336.765
336.604
336.398
335.981
335.559
334.967
334.382
333.641
332.876
332.262
325.444
325.926
326.429
326.926
327.52
327.878
328.21
328.476
328.504
328.63
328.56
328.488
328.258
328.048
327.746
327.282
326.698
326.218
325.569
325.094
318.161
318.512
318.918
319.303
319.608
319.857
320.068
320.254
320.39
320.412
320.452
320.412
320.267
320.041
319.84
319.454
319.131
318.708
318.303
317.984
310.923
311.124
311.378
311.63
311.773
311.916
312.082
312.271
312.285
312.288
312.236
312.228
312.196
312.024
311.841
311.7
311.512
311.23
311.025
310.813
303.71
303.755
303.792
303.889
303.881
304.041
304.101
304.088
304.14
304.091
304.096
304.103
304.129
303.993
304.015
303.873
303.826
303.806
303.728
303.609
)
;

boundaryField
{
    hotSide
    {
        type            fixedGradient;
        gradient        nonuniform List<scalar> 
400
(
321.511
322.87
325.591
329.677
335.133
341.965
350.181
359.788
370.794
383.208
397.037
412.289
428.971
447.088
466.647
487.651
510.105
534.011
559.372
586.191
323.738
325.08
327.767
331.802
337.194
343.949
352.078
361.591
372.498
384.81
398.537
413.687
430.268
448.289
467.755
488.672
511.043
534.872
560.161
586.913
326.149
327.47
330.116
334.091
339.406
346.071
354.099
363.503
374.296
386.491
400.101
415.136
431.606
449.52
468.885
489.706
511.988
535.735
560.948
587.63
328.704
330
332.597
336.503
341.73
348.292
356.205
365.485
376.15
388.215
401.695
416.604
432.954
450.753
470.009
490.73
512.919
536.579
561.714
588.325
331.33
332.599
335.142
338.97
344.099
350.546
358.332
367.477
378.003
389.928
403.271
418.047
434.27
451.949
471.095
491.712
513.807
537.382
562.439
588.978
333.918
335.158
337.643
341.389
346.414
352.74
360.392
369.397
379.779
391.562
404.765
419.407
435.503
453.065
472.101
492.618
514.622
538.114
563.096
589.569
336.321
337.531
339.959
343.622
348.544
354.751
362.274
371.142
381.385
393.031
406.101
420.618
436.595
454.047
472.983
493.409
515.33
538.747
563.663
590.076
338.36
339.543
341.92
345.509
350.339
356.44
363.847
372.595
382.718
394.244
407.2
421.608
437.485
454.844
473.695
494.045
515.897
539.253
564.114
590.478
339.852
341.015
343.352
346.885
351.645
357.665
364.985
373.643
383.675
395.113
407.984
422.312
438.116
455.407
474.197
494.491
516.294
539.606
564.428
590.758
340.643
341.795
344.11
347.613
352.334
358.311
365.584
374.193
384.176
395.567
408.393
422.679
438.443
455.699
474.456
494.722
516.498
539.788
564.589
590.901
340.643
341.795
344.11
347.613
352.334
358.311
365.584
374.193
384.176
395.567
408.393
422.679
438.443
455.699
474.456
494.722
516.498
539.788
564.589
590.901
339.852
341.015
343.352
346.885
351.645
357.665
364.985
373.643
383.675
395.113
407.984
422.312
438.116
455.407
474.197
494.491
516.294
539.606
564.428
590.758
338.36
339.543
341.92
345.509
350.339
356.44
363.847
372.595
382.718
394.244
407.2
421.608
437.485
454.844
473.695
494.045
515.897
539.253
564.114
590.478
336.321
337.531
339.959
343.622
348.544
354.751
362.274
371.142
381.385
393.031
406.101
420.618
436.595
454.047
472.983
493.409
515.33
538.747
563.663
590.076
333.918
335.158
337.643
341.389
346.414
352.74
360.392
369.397
379.779
391.562
404.765
419.407
435.503
453.065
472.101
492.618
514.622
538.114
563.096
589.569
331.33
332.599
335.142
338.97
344.099
350.546
358.332
367.477
378.003
389.928
403.271
418.047
434.27
451.949
471.095
491.712
513.807
537.382
562.439
588.978
328.704
330
332.597
336.503
341.73
348.292
356.205
365.485
376.15
388.215
401.695
416.604
432.954
450.753
470.009
490.73
512.919
536.579
561.714
588.325
326.149
327.47
330.116
334.091
339.406
346.071
354.099
363.503
374.296
386.491
400.101
415.136
431.606
449.52
468.885
489.706
511.988
535.735
560.948
587.63
323.738
325.08
327.767
331.802
337.194
343.949
352.078
361.591
372.498
384.81
398.537
413.687
430.268
448.289
467.755
488.672
511.043
534.872
560.161
586.913
321.511
322.87
325.591
329.677
335.133
341.965
350.181
359.788
370.794
383.208
397.037
412.289
428.971
447.088
466.647
487.651
510.105
534.011
559.372
586.191
)
;
    }
    coldSide
    {
        type            mixed;
        refValue        uniform 300;
        refGradient     uniform 0;
        valueFraction   uniform 0.991591;
        source          uniform 0;
        value           nonuniform List<scalar> 
400
(
300.024
300.025
300.025
300.026
300.026
300.027
300.027
300.028
300.029
300.029
300.029
300.03
300.03
300.03
300.031
300.031
300.03
300.031
300.031
300.031
300.025
300.025
300.025
300.026
300.027
300.027
300.028
300.029
300.029
300.03
300.03
300.03
300.031
300.031
300.031
300.031
300.031
300.032
300.031
300.032
300.025
300.026
300.026
300.027
300.027