/*--------------------------------*- C++ -*----------------------------------*\
| =========                 |                                                 |
| \\      /  F ield         | OpenFOAM: The Open Source CFD Toolbox           |
|  \\    /   O peration     | Version:  2212                                  |
|   \\  /    A nd           | Website:  www.openfoam.com                      |
|    \\/     M anipulation  |                                                 |
\*---------------------------------------------------------------------------*/
FoamFile
{
    version     2.0;
    format      ascii;
    arch        "LSB;label=32;scalar=64";
    class       volScalarField;
    location    "0";
    object      T;
}
// * * * * * * * * * * * * * * * * * * * * * * * * * * * * * * * * * * * * * //

dimensions      [0 0 0 1 0 0 0];

internalField   nonuniform List<scalar> 
3200
(
342.859
343.495
344.496
345.577
346.253
346.926
347.384
347.85
348.084
347.838
347.692
347.548
347.203
346.783
346.04
345.839
344.805
343.99
342.772
342.118
337.258
337.805
338.639
339.57
340.204
340.78
341.218
341.601
341.731
341.545
341.434
341.355
341.007
340.635
339.985
339.814
338.94
338.289
337.189
336.629
331.615
332.05
332.78
333.511
334.077
334.584
334.955
335.279
335.367
335.225
335.187
335.097
334.739
334.469
333.861
333.719
333.021
332.491
331.54
331.084
325.934
326.285
326.881
327.488
327.93
328.368
328.683
328.926
328.993
328.887
328.858
328.771
328.443
328.264
327.761
327.649
327.037
326.627
325.909
325.502
320.202
320.471
321.003
321.398
321.747
322.117
322.369
322.567
322.542
322.548
322.508
322.425
322.167
322.013
321.632
321.518
321.06
320.731
320.208
319.895
314.435
314.661
315.068
315.295
315.536
315.837
315.992
316.182
316.103
316.099
316.077
316.035
315.847
315.741
315.46
315.371
315.037
314.833
314.474
314.268
308.665
308.851
309.026
309.207
309.334
309.521
309.604
309.743
309.679
309.669
309.67
309.616
309.49
309.444
309.316
309.227
309.042
308.948
308.725
308.585
302.891
302.965
303.006
303.104
303.14
303.219
303.223
303.267
303.243
303.239
303.25
303.222
303.176
303.155
303.127
303.082
303.028
302.991
302.917
302.904
343.501
344.375
345.518
346.308
347.093
347.729
348.329
348.432
348.962
348.862
348.588
348.577
348.232
347.848
347.063
346.736
345.624
344.723
343.547
342.853
337.775
338.516
339.48
340.212
340.875
341.388
341.942
342.061
342.527
342.464
342.177
342.165
341.915
341.499
340.816
340.504
339.539
338.839
337.795
337.194
332.002
332.606
333.455
334.088
334.641
335.019
335.504
335.65
336.032
336.034
335.747
335.719
335.515
335.095
334.553
334.274
333.48
332.951
332.041
331.534
326.232
326.675
327.39
327.909
328.395
328.691
329.083
329.165
329.501
329.511
329.294
329.236
329.064
328.708
328.314
328.048
327.36
327.005
326.252
325.857
320.421
320.768
321.324
321.75
322.114
322.305
322.653
322.735
322.949
322.975
322.802
322.802
322.618
322.293
322.041
321.827
321.31
321.039
320.475
320.162
314.612
314.837
315.259
315.599
315.786
315.956
316.207
316.267
316.411
316.375
316.356
316.355
316.142
315.898
315.746
315.612
315.241
315.039
314.684
314.448
308.78
308.915
309.154
309.43
309.473
309.608
309.76
309.753
309.906
309.815
309.85
309.833
309.709
309.516
309.467
309.41
309.139
309.036
308.867
308.674
302.954
302.999
303.054
303.16
303.174
303.215
303.289
303.274
303.333
303.283
303.303
303.302
303.272
303.185
303.173
303.151
303.064
303.04
302.981
302.89
344.613
345.334
346.421
347.481
348.281
349.001
349.314
349.667
350.157
349.887
349.885
349.648
349.315
348.962
348.377
347.736
346.651
345.814
344.624
343.811
338.76
339.324
340.311
341.169
341.93
342.534
342.815
343.088
343.524
343.267
343.273
343.076
342.79
342.459
342.018
341.413
340.433
339.714
338.734
338.004
332.821
333.363
334.161
334.864
335.539
336.018
336.283
336.561
336.867
336.623
336.668
336.441
336.247
335.947
335.576
335.093
334.222
333.655
332.777
332.201
326.88
327.314
327.995
328.546
329.127
329.473
329.741
329.953
330.177
329.982
330.018
329.859
329.698
329.413
329.098
328.754
328.038
327.566
326.832
326.367
320.923
321.244
321.807
322.228
322.673
322.918
323.16
323.344
323.445
323.3
323.325
323.258
323.139
322.859
322.567
322.382
321.804
321.432
320.88
320.577
314.96
315.206
315.603
315.914
316.238
316.321
316.543
316.682
316.751
316.628
316.653
316.64
316.535
316.339
316.077
315.966
315.598
315.314
314.919
314.739
309.012
309.136
309.374
309.589
309.747
309.767
309.938
309.992
310.048
309.982
310.003
310.001
309.931
309.789
309.639
309.584
309.38
309.217
308.993
308.888
303.011
303.073
303.151
303.223
303.253
303.293
303.331
303.328
303.366
303.33
303.349
303.342
303.325
303.279
303.227
303.205
303.165
303.1
303.022
302.982
345.486
346.522
347.763
348.689
349.511
350.145
350.322
351.114
351.178
351.069
351.046
350.923
350.641
350.314
349.606
348.612
347.674
346.646
345.68
344.667
339.463
340.31
341.449
342.273
342.982
343.553
343.646
344.346
344.404
344.284
344.222
344.141
343.903
343.623
343.018
342.158
341.319
340.428
339.61
338.768
333.409
334.147
335.064
335.803
336.434
336.92
336.999
337.521
337.57
337.501
337.446
337.396
337.213
336.923
336.424
335.685
335.003
334.228
333.481
332.84
327.405
327.994
328.708
329.273
329.878
330.234
330.35
330.752
330.731
330.728
330.672
330.574
330.502
330.224
329.821
329.247
328.656
328
327.41
326.891
321.35
321.785
322.352
322.779
323.27
323.542
323.653
323.965
323.88
323.941
323.871
323.761
323.742
323.5
323.185
322.771
322.243
321.789
321.293
320.979
315.287
315.6
315.989
316.263
316.643
316.815
316.947
317.161
317.072
317.144
317.091
316.984
316.986
316.774
316.536
316.236
315.865
315.617
315.192
315.041
309.205
309.382
309.64
309.732
309.984
310.118
310.249
310.286
310.25
310.341
310.278
310.136
310.212
310.104
309.929
309.726
309.527
309.402
309.138
309.051
303.083
303.166
303.237
303.249
303.36
303.392
303.442
303.456
303.423
303.486
303.461
303.385
303.413
303.389
303.318
303.268
303.195
303.149
303.07
303.033
346.72
347.473
348.724
349.852
350.531
351.189
351.625
352.258
352.421
352.336
352.322
352.213
351.931
351.263
350.763
349.957
349.008
347.982
346.612
345.782
340.537
341.184
342.268
343.249
343.87
344.428
344.774
345.347
345.523
345.403
345.376
345.249
345.005
344.42
344.026
343.28
342.462
341.577
340.408
339.74
334.367
334.899
335.782
336.596
337.176
337.636
337.959
338.42
338.595
338.487
338.418
338.339
338.103
337.584
337.327
336.609
335.951
335.161
334.204
333.695
328.169
328.606
329.278
329.918
330.425
330.824
331.138
331.482
331.626
331.551
331.456
331.406
331.182
330.783
330.59
329.923
329.46
328.735
327.998
327.6
321.974
322.302
322.764
323.301
323.683
323.983
324.22
324.497
324.624
324.576
324.483
324.417
324.233
323.954
323.811
323.249
322.957
322.354
321.766
321.481
315.759
315.956
316.255
316.667
316.926
317.161
317.295
317.519
317.609
317.593
317.492
317.436
317.294
317.114
317.054
316.566
316.414
315.939
315.523
315.379
309.468
309.605
309.739
309.996
310.146
310.307
310.412
310.533
310.571
310.615
310.547
310.483
310.382
310.288
310.261
309.922
309.867
309.561
309.317
309.262
303.17
303.229
303.278
303.342
303.383
303.464
303.495
303.529
303.542
303.57
303.538
303.529
303.467
303.458
303.44
303.342
303.308
303.183
303.129
303.097
347.665
348.575
349.654
350.917
351.721
352.569
353.017
353.358
353.792
353.528
353.595
353.379
353.053
352.473
351.99
350.993
350.145
349.053
347.848
346.924
341.372
342.134
343.044
344.149
344.812
345.636
345.98
346.248
346.607
346.422
346.443
346.252
345.987
345.467
345.094
344.227
343.47
342.514
341.458
340.682
335.035
335.667
336.411
337.396
337.906
338.673
338.965
339.138
339.426
339.273
339.293
339.128
338.985
338.487
338.185
337.431
336.789
335.938
335.087
334.427
328.655
329.179
329.785
330.592
331.035
331.675
331.915
332.043
332.271
332.151
332.151
331.987
331.91
331.5
331.249
330.586
330.106
329.374
328.716
328.135
322.302
322.691
323.183
323.764
324.155
324.683
324.881
324.952
325.115
324.986
325.012
324.859
324.787
324.517
324.288
323.737
323.441
322.811
322.298
321.858
315.955
316.22
316.574
316.981
317.233
317.634
317.85
317.89
317.983
317.831
317.894
317.768
317.722
317.586
317.361
316.973
316.771
316.265
315.878
315.592
309.582
309.78
309.944
310.194
310.314
310.58
310.727
310.805
310.816
310.704
310.785
310.7
310.645
310.604
310.461
310.167
310.087
309.718
309.552
309.329
303.185
303.284
303.33
303.413
303.449
303.547
303.583
303.635
303.637
303.564
303.606
303.589
303.574
303.558
303.512
303.412
303.389
303.257
303.202
303.132
348.779
349.667
350.723
351.998
353.072
353.755
354.144
354.465
354.944
354.889
354.852
354.476
353.986
353.526
353.023
352.157
351.3
350.126
348.995
348.044
342.295
343.082
344.004
345.082
346.056
346.665
346.963
347.229
347.656
347.596
347.586
347.202
346.819
346.394
345.974
345.277
344.445
343.481
342.468
341.666
335.753
336.467
337.269
338.167
338.986
339.543
339.765
339.978
340.353
340.302
340.299
339.943
339.64
339.277
338.887
338.321
337.627
336.837
335.967
335.282
329.233
329.878
330.453
331.23
331.922
332.343
332.568
332.739
333.051
333.013
333.006
332.705
332.426
332.114
331.815
331.324
330.851
330.167
329.489
328.899
322.717
323.256
323.664
324.314
324.833
325.128
325.338
325.464
325.698
325.718
325.667
325.467
325.246
324.975
324.708
324.316
324.026
323.457
322.954
322.444
316.226
316.627
316.915
317.375
317.759
317.965
318.123
318.208
318.357
318.406
318.343
318.232
318.06
317.901
317.647
317.331
317.171
316.759
316.424
316.041
309.756
309.988
310.177
310.446
310.718
310.783
310.889
310.945
311.036
311.041
311.027
310.946
310.863
310.752
310.602
310.438
310.299
310.095
309.877
309.656
303.265
303.356
303.406
303.492
303.616
303.636
303.658
303.66
303.71
303.718
303.704
303.67
303.656
303.607
303.556
303.515
303.455
303.394
303.31
303.241
349.596
350.839
351.899
352.986
354.021
354.741
355.186
355.68
355.891
355.943
355.88
355.571
354.994
354.726
353.889
353.02
352.19
351.024
349.91
348.74
343.019
344.105
345.014
345.926
346.831
347.485
347.873
348.293
348.472
348.542
348.445
348.216
347.641
347.41
346.739
345.999
345.238
344.215
343.281
342.294
336.451
337.312
338.12
338.857
339.636
340.25
340.567
340.888
341.014
341.114
341.02
340.83
340.301
340.103
339.533
338.9
338.251
337.435
336.633
335.878
329.852
330.552
331.234
331.767
332.463
332.979
333.238
333.471
333.552
333.676
333.592
333.424
333.023
332.832
332.367
331.873
331.309
330.642
329.981
329.378
323.296
323.787
324.322
324.679
325.271
325.659
325.849
326.037
326.106
326.238
326.11
325.997
325.748
325.553
325.203
324.813
324.376
323.811
323.348
322.871
316.657
317.013
317.389
317.601
318.054
318.328
318.467
318.615
318.625
318.82
318.672
318.606
318.448
318.267
318.041
317.738
317.452
317.022
316.65
316.327
309.985
310.205
310.466
310.544
310.838
310.998
311.098
311.167
311.182
311.334
311.22
311.191
311.109
310.965
310.84
310.625
310.5
310.22
309.964
309.832
303.317
303.41
303.507
303.532
303.621
303.678
303.709
303.721
303.758
303.798
303.758
303.753
303.734
303.692
303.629
303.55
303.536
303.417
303.352
303.304
350.71
351.795
352.941
354.027
354.999
355.631
356.122
356.594
356.641
357.045
356.904
356.934
356.362
355.543
354.909
354.088
353.264
351.931
350.855
349.714
344.011
344.931
345.948
346.829
347.718
348.258
348.682
349.09
349.1
349.471
349.364
349.411
348.858
348.154
347.592
346.859
346.172
344.991
344.086
343.093
337.301
338.053
338.956
339.631
340.425
340.908
341.211
341.568
341.505
341.894
341.746
341.855
341.365
340.747
340.247
339.626
339.066
338.031
337.304
336.5
330.573
331.193
331.896
332.361
333.1
333.472
333.715
334.051
333.892
334.284
334.122
334.292
333.865
333.313
332.947
332.429
331.961
331.127
330.509
329.886
323.799
324.271
324.807
325.132
325.764
326.071
326.227
326.53
326.352
326.671
326.517
326.703
326.388
325.906
325.62
325.248
324.858
324.217
323.739
323.254
317.022
317.35
317.731
317.943
318.397
318.624
318.779
319.003
318.827
319.079
318.979
319.109
318.917
318.534
318.307
318.09
317.784
317.316
316.955
316.582
310.168
310.406
310.635
310.747
311.036
311.196
311.286
311.434
311.286
311.454
311.4
311.519
311.395
311.134
311.01
310.855
310.717
310.402
310.18
309.972
303.396
303.479
303.569
303.612
303.684
303.742
303.8
303.846
303.791
303.844
303.825
303.879
303.815
303.74
303.701
303.633
303.606
303.475
303.417
303.353
351.555
352.518
353.804
354.915
355.723
356.403
357.043
357.515
357.642
357.77
357.857
357.476
357.269
356.536
355.84
354.927
354.125
352.906
351.733
350.381
344.762
345.583
346.705
347.625
348.296
348.873
349.475
349.892
349.977
350.122
350.117
349.827
349.694
349.017
348.395
347.571
346.937
345.858
344.863
343.711
337.94
338.592
339.595
340.338
340.881
341.39
341.889
342.264
342.285
342.46
342.36
342.182
342.079
341.488
340.958
340.261
339.741
338.863
337.983
337.005
331.071
331.614
332.463
333.007
333.455
333.902
334.293
334.634
334.648
334.79
334.665
334.582
334.443
333.96
333.518
332.95
332.511
331.847
331.112
330.291
324.171
324.612
325.273
325.678
326.03
326.396
326.681
327.008
327.006
327.103
326.973
326.89
326.823
326.445
326.095
325.636
325.269
324.828
324.254
323.61
317.243
317.585
318.059
318.282
318.589
318.864
319.064
319.316
319.309
319.374
319.278
319.173
319.151
318.873
318.653
318.276
318.063
317.752
317.352
316.879
310.379
310.569
310.857
310.968
311.167
311.335
311.446
311.571
311.589
311.624
311.596
311.478
311.542
311.336
311.225
310.982
310.875
310.662
310.435
310.108
303.483
303.541
303.638
303.667
303.721
303.784
303.842
303.88
303.877
303.911
303.898
303.825
303.883
303.823
303.765
303.678
303.657
303.584
303.489
303.359
352.012
353.309
354.42
355.526
356.392
357.108
357.867
358.122
358.378
358.714
358.658
358.21
358.192
357.49
356.66
355.723
354.832
353.767
352.31
351.176
345.153
346.263
347.25
348.114
348.846
349.511
350.138
350.414
350.631
350.894
350.846
350.461
350.467
349.889
349.103
348.268
347.5
346.632
345.35
344.373
338.265
339.186
340.036
340.717
341.345
341.926
342.429
342.678
342.867
343.057
343.03
342.704
342.739
342.213
341.526
340.83
340.173
339.507
338.387
337.545
331.369
332.097
332.809
333.326
333.846
334.357
334.729
334.955
335.154
335.247
335.241
334.926
334.958
334.554
333.985
333.419
332.885
332.33
331.38
330.748
324.444
324.978
325.522
325.895
326.299
326.767
327.016
327.222
327.411
327.421
327.429
327.147
327.166
326.874
326.411
325.987
325.572
325.169
324.384
323.928
317.477
317.853
318.231
318.489
318.792
319.151
319.302
319.423
319.641
319.6
319.607
319.402
319.405
319.208
318.929
318.536
318.325
317.99
317.417
317.105
310.521
310.713
310.975
311.122
311.275
311.527
311.629
311.682
311.822
311.761
311.725
311.662
311.653
311.528
311.422
311.129
311.064
310.8
310.451
310.281
303.529
303.573
303.693
303.727
303.772
303.879
303.893
303.909
303.954
303.932
303.931
303.922
303.904
303.876
303.851
303.729
303.724
303.61
303.516
303.428
352.534
353.897
355.099
356.08
357.04
357.841
358.572
359.065
359.216
359.424
359.505
359.104
358.79
358.142
357.308
356.504
355.447
354.447
353.24
351.97
345.561
346.753
347.789
348.647
349.505
350.142
350.777
351.222
351.327
351.505
351.593
351.236
350.938
350.429
349.661
348.932
348.054
347.246
346.179
345.114
338.58
339.663
340.434
341.176
341.939
342.462
343.007
343.333
343.436
343.601
343.646
343.342
343.081
342.692
342.024
341.423
340.69
340.015
339.119
338.188
331.601
332.491
333.073
333.725
334.331
334.774
335.261
335.433
335.569
335.717
335.721
335.417
335.23
334.946
334.4
333.908
333.292
332.738
332.015
331.3
324.61
325.288
325.699
326.255
326.726
327.083
327.455
327.57
327.739
327.76
327.794
327.556
327.392
327.175
326.772
326.411
325.934
325.439
324.909
324.385
317.613
318.064
318.329
318.792
319.078
319.376
319.642
319.713
319.855
319.852
319.882
319.691
319.6
319.431
319.129
318.933
318.556
318.192
317.783
317.397
310.608
310.835
311.005
311.325
311.443
311.64
311.777
311.851
311.951
311.894
311.939
311.848
311.816
311.674
311.482
311.386
311.166
310.944
310.67
310.425
303.523
303.625
303.696
303.809
303.834
303.882
303.944
303.993
304.019
303.979
303.992
303.965
303.976
303.914
303.849
303.833
303.754
303.673
303.579
303.466
353.393
354.483
355.579
356.95
357.659
358.284
359.172
359.763
359.875
360.036
359.961
359.813
359.621
358.774
357.898
357.191
356.237
355.047
353.748
352.628
346.345
347.276
348.207
349.413
350.035
350.556
351.313
351.831
351.927
352.048
351.966
351.895
351.709
350.937
350.169
349.575
348.73
347.712
346.605
345.639
339.298
340.036
340.79
341.847
342.372
342.832
343.442
343.885
343.974
344.062
344.011
344.001
343.775
343.091
342.466
341.978
341.246
340.372
339.465
338.65
332.197
332.782
333.369
334.252
334.664
335.099
335.577
335.947
336.014
336.036
336.002
336.065
335.873
335.248
334.749
334.361
333.747
333.033
332.343
331.655
325.055
325.496
325.943
326.647
326.984
327.306
327.685
327.955
328.038
327.989
327.974
328.039
327.911
327.408
326.989
326.757
326.268
325.741
325.199
324.626
317.904
318.238
318.525
319.038
319.28
319.478
319.835
319.971
320.052
319.994
320.002
319.989
319.918
319.588
319.252
319.136
318.757
318.425
318.023
317.593
310.732
310.947
311.115
311.429
311.581
311.658
311.887
312.004
312.04
312.005
311.995
312.014
311.971
311.758
311.56
311.477
311.259
311.085
310.839
310.549
303.611
303.674
303.719
303.842
303.877
303.906
303.99
304.03
304.041
304.045
304.027
304.034
304.032
303.929
303.885
303.832
303.771
303.713
303.644
303.521
353.731
354.893
356.25
357.561
358.505
358.864
359.612
360.224
360.26
360.534
360.578
360.395
359.846
359.343
358.463
357.586
356.702
355.569
354.333
352.943
346.69
347.594
348.75
349.933
350.771
351.051
351.684
352.188
352.237
352.463
352.536
352.384
351.887
351.469
350.683
349.89
349.138
348.143
347.104
345.941
339.64
340.303
341.265
342.289
343.001
343.203
343.736
344.144
344.228
344.408
344.461
344.323
343.927
343.566
342.851
342.195
341.587
340.743
339.891
338.936
332.528
333
333.791
334.656
335.201
335.329
335.793
336.125
336.188
336.379
336.437
336.268
335.968
335.671
335.081
334.527
334.078
333.356
332.619
331.911
325.341
325.678
326.293
326.956
327.37
327.497
327.866
328.04
328.116
328.315
328.363
328.221
327.998
327.781
327.294
326.868
326.519
325.947
325.401
324.869
318.125
318.411
318.772
319.253
319.56
319.654
319.912
320.04
320.077
320.24
320.302
320.161
320.045
319.9
319.507
319.2
318.952
318.545
318.16
317.799
310.893
311.083
311.265
311.552
311.777
311.807
311.962
312.065
312.069
312.147
312.182
312.1
312.06
311.992
311.686
311.494
311.389
311.154
310.919
310.723
303.656
303.72
303.773
303.848
303.941
303.973
304.015
304.056
304.053
304.089
304.087
304.055
304.075
304.012
303.919
303.841
303.817
303.746
303.676
303.598
354.065
355.276
356.612
357.82
358.813
359.474
360.173
360.657
360.798
361.225
361.048
360.897
360.244
359.882
358.999
357.914
356.943
355.911
354.514
353.284
346.905
347.944
349.148
350.144
350.985
351.54
352.168
352.629
352.708
353.106
352.932
352.819
352.219
351.926
351.182
350.186
349.392
348.488
347.221
346.19
339.688
340.592
341.658
342.449
343.177
343.619
344.13
344.526
344.642
344.957
344.788
344.703
344.22
343.935
343.361
342.476
341.856
341.072
339.942
339.095
332.459
333.23
334.124
334.748
335.355
335.699
336.125
336.443
336.547
336.803
336.709
336.574
336.187
335.972
335.53
334.768
334.27
333.64
332.703
331.986
325.284
325.85
326.551
327.085
327.54
327.794
328.114
328.372
328.431
328.641
328.599
328.481
328.117
327.988
327.703
327.035
326.666
326.185
325.465
324.878
318.104
318.473
318.946
319.373
319.706
319.837
320.14
320.34
320.316
320.478
320.452
320.328
320.086
319.975
319.816
319.329
319.029
318.708
318.179
317.729
310.882
311.088
311.377
311.654
311.864
311.869
312.103
312.279
312.185
312.269
312.292
312.225
312.077
311.992
311.929
311.629
311.405
311.25
310.903
310.621
303.637
303.723
303.828
303.909
303.983
303.966
304.043
304.122
304.086
304.11
304.121
304.098
304.073
304.019
303.989
303.901
303.81
303.775
303.66
303.533
354.112
355.589
356.791
358.072
359.156
359.917
360.549
360.964
361.365
361.549
361.357
361.327
360.75
360.159
359.55
358.331
357.416
356.072
354.632
353.461
346.984
348.212
349.265
350.35
351.302
351.942
352.462
352.873
353.229
353.366
353.244
353.221
352.645
352.159
351.655
350.567
349.775
348.607
347.413
346.373
339.808
340.786
341.73
342.642
343.429
343.968
344.418
344.788
345.022
345.157
345.11
345.084
344.564
344.157
343.765
342.769
342.136
341.149
340.128
339.257
332.615
333.387
334.156
334.911
335.545
335.993
336.4
336.648
336.845
336.976
336.932
336.884
336.508
336.16
335.858
335.024
334.5
333.686
332.833
332.128
325.404
326.039
326.58
327.158
327.673
327.986
328.371
328.515
328.687
328.777
328.729
328.762
328.403
328.12
327.928
327.236
326.82
326.251
325.58
325.024
318.139
318.624
318.999
319.38
319.814
319.979
320.3
320.383
320.539
320.579
320.512
320.606
320.303
320.102
319.942
319.471
319.206
318.804
318.322
317.878
310.894
311.191
311.42
311.636
311.936
311.993
312.188
312.239
312.362
312.385
312.304
312.392
312.159
312.098
311.988
311.717
311.55
311.281
311.015
310.757
303.645
303.764
303.842
303.881
304.013
304.021
304.064
304.099
304.162
304.162
304.117
304.13
304.069
304.06
304.028
303.936
303.867
303.792
303.719
303.596
354.36
355.686
356.931
358.153
359.509
360.13
360.848
361.217
361.577
361.714
361.627
361.651
361.053
360.344
359.681
358.627
357.433
356.319
354.983
353.909
347.178
348.254
349.357
350.434
351.628
352.12
352.771
353.066
353.382
353.54
353.418
353.488
352.963
352.286
351.767
350.84
349.81
348.829
347.687
346.747
340.005
340.857
341.797
342.703
343.729
344.131
344.716
344.881
345.19
345.332
345.215
345.276
344.822
344.212
343.778
342.998
342.158
341.335
340.403
339.597
332.777
333.44
334.225
334.988
335.788
336.137
336.616
336.764
336.968
337.115
337.055
337.086
336.696
336.153
335.854
335.175
334.487
333.847
333.111
332.397
325.558
326.015
326.63
327.254
327.864
328.059
328.482
328.626
328.737
328.883
328.835
328.885
328.579
328.136
327.932
327.388
326.819
326.314
325.805
325.192
318.269
318.581
319.046
319.497
319.931
320.039
320.358
320.453
320.538
320.644
320.617
320.64
320.434
320.117
319.935
319.602
319.173
318.799
318.483
317.969
310.96
311.145
311.45
311.744
311.964
312.019
312.208
312.316
312.351
312.411
312.382
312.412
312.279
312.051
311.973
311.771
311.532
311.273
311.11
310.786
303.658
303.719
303.816
303.933
304.016
304.028
304.083
304.15
304.155
304.167
304.162
304.161
304.122
304.039
304.022
303.954
303.875
303.774
303.719
303.611
354.727
355.807
357.313
358.615
359.558
360.1
360.86
361.165
361.653
361.925
361.866
361.686
361.336
360.505
359.773
358.778
357.569
356.486
355.292
354.09
347.446
348.402
349.654
350.826
351.665
352.077
352.764
352.979
353.467
353.706
353.613
353.493
353.173
352.447
351.775
350.943
349.851
348.947
347.907
346.889
340.206
341
341.968
343.01
343.724
344.06
344.625
344.811
345.268
345.46
345.338
345.287
345.007
344.374
343.791
343.118
342.164
341.406
340.592
339.716
332.963
333.607
334.298
335.247
335.774
336.005
336.474
336.661
337.058
337.202
337.106
337.093
336.829
336.312
335.849
335.278
334.495
333.884
333.257
332.566
325.69
326.237
326.675
327.427
327.845
328.025
328.335
328.526
328.811
328.951
328.888
328.878
328.639
328.28
327.923
327.435
326.825
326.352
325.909
325.395
318.405
318.81
319.061
319.613
319.913
320.009
320.245
320.383
320.596
320.667
320.657
320.615
320.468
320.206
319.965
319.622
319.156
318.812
318.509
318.162
311.087
311.301
311.479
311.789
311.951
311.991
312.148
312.257
312.364
312.375
312.434
312.387
312.267
312.136
311.986
311.777
311.515
311.272
311.097
310.92
303.708
303.783
303.844
303.94
303.998
304.006
304.072
304.118
304.166
304.147
304.17
304.166
304.113
304.071
304
303.96
303.846
303.789
303.726
303.642
354.688
355.918
357.409
358.617
359.482
360.278
361.05
361.199
361.764
362.026
361.796
361.683
361.487
360.492
359.908
358.897
357.927
356.65
355.201
354.165
347.463
348.528
349.836
350.859
351.553
352.261
352.897
353.032
353.543
353.774
353.569
353.478
353.299
352.481
351.907
351.018
350.234
349.087
347.854
346.955
340.256
341.11
342.169
343.051
343.626
344.241
344.777
344.913
345.355
345.495
345.373
345.282
345.108
344.423
343.943
343.183
342.536
341.574
340.54
339.758
333.043
333.678
334.469
335.241
335.696
336.198
336.619
336.777
337.111
337.238
337.096
337.083
336.922
336.382
335.998
335.39
334.813
334.045
333.175
332.57
325.763
326.286
326.799
327.407
327.817
328.165
328.481
328.64
328.871
328.965
328.821
328.837
328.769
328.334
328.025
327.536
327.046
326.519
325.777
325.393
318.438
318.846
319.155
319.548
319.912
320.137
320.343
320.489
320.661
320.682
320.573
320.61
320.592
320.261
320.04
319.711
319.346
318.972
318.402
318.198
311.09
311.316
311.519
311.742
311.971
312.103
312.217
312.301
312.435
312.389
312.35
312.367
312.362
312.199
312.062
311.874
311.631
311.379
311.046
310.961
303.731
303.79
303.876
303.927
303.994
304.057
304.09
304.134
304.186
304.159
304.129
304.15
304.135
304.102
304.036
303.997
303.894
303.821
303.692
303.661
354.681
355.87
357.429
358.383
359.624
360.3
361.116
361.785
361.813
361.981
361.855
361.473
361.474
360.625
359.854
359.081
358.262
356.759
355.221
354.165
347.489
348.462
349.811
350.657
351.742
352.29
353.061
353.61
353.611
353.761
353.66
353.324
353.34
352.5
351.904
351.229
350.549
349.219
347.901
346.969
340.311
341.053
342.19
342.847
343.803
344.257
344.938
345.375
345.346
345.501
345.405
345.162
345.174
344.391
343.923
343.369
342.806
341.674
340.575
339.753
332.98
333.638
334.55
335.049
335.812
336.189
336.786
337.127
337.044
337.263
337.193
336.981
336.995
336.283
335.941
335.484
335.051
334.133
333.261
332.561
325.66
326.182
326.838
327.301
327.884
328.169
328.606
328.873
328.783
329.009
328.966
328.839
328.795
328.246
327.985
327.647
327.265
326.626
325.898
325.334
318.369
318.708
319.172
319.516
319.912
320.166
320.44
320.614
320.543
320.728
320.701
320.629
320.6
320.26
319.999
319.792
319.526
319.049
318.544
318.134
311.034
311.245
311.504
311.716
311.947
312.125
312.274
312.382
312.328
312.445
312.488
312.401
312.382
312.228
312.042
311.912
311.747
311.456
311.133
310.894
303.694
303.768
303.864
303.922
304.007
304.065
304.117
304.137
304.127
304.195
304.188
304.169
304.147
304.08
304.047
304.004
303.921
303.86
303.757
303.648
)
;

boundaryField
{
    hotSide
    {
        type            fixedGradient;
        gradient        nonuniform List<scalar> 
400
(
441.139
454.283
467.025
479.308
491.077
502.277
512.854
522.757
531.937
540.348
547.948
554.697
560.559
565.503
569.503
572.537
574.587
575.641
575.693
574.741
452.818
466.349
479.47
492.121
504.246
515.787
526.69
536.903
546.374
555.056
562.905
569.88
575.945
581.068
585.22
588.378
590.526
591.65
591.743
590.804
463.306
477.189
490.654
503.641
516.09
527.943
539.145
549.64
559.377
568.308
576.386
583.57
589.822
595.109
599.403
602.679
604.919
606.11
606.244
605.32
472.54
486.738
500.511
513.797
526.536
538.67
550.139
560.888
570.866
580.02
588.305
595.678
602.101
607.538
611.961
615.344
617.67
618.925
619.1
618.194
480.468
494.941
508.983
522.531
535.525
547.903
559.608
570.581
580.769
590.122
598.59
606.131
612.704
618.275
622.814
626.296
628.7
630.014
630.228
629.341
487.048
501.753
516.023
529.795
543.005
555.592
567.497
578.662
589.031
598.553
607.179
614.865
621.569
627.257
631.898
635.466
637.94
639.308
639.559
638.692
492.247
507.142
521.597
535.55
548.937
561.696
573.766
585.087
595.606
605.268
614.025
621.831
628.645
634.431
639.158
642.8
645.335
646.751
647.036
646.19
496.042
511.08
525.678
539.77
553.293
566.184
578.381
589.824
600.459
610.231
619.09
626.992
633.893
639.758
644.555
648.257
650.843
652.299
652.616
651.79
498.416
513.553
528.248
542.436
556.053
569.035
581.321
592.851
603.567
613.418
622.351
630.321
637.286
643.21
648.059
651.807
654.434
655.924
656.267
655.461
499.364
514.552
529.299
543.539
557.207
570.24
582.576
594.154
604.918
614.814
623.792
631.804
638.809
644.77
649.654
653.434
656.09
657.605
657.971
657.184
498.884
514.077
528.83
543.077
556.754
569.796
582.142
593.732
604.509
614.418
623.409
631.436
638.457
644.433
649.334
653.131
655.804
657.337
657.72
656.951
496.985
512.136
526.85
541.059
554.701
567.711
580.028
591.591
602.345
612.235
621.21
629.224
636.235
642.206
647.105
650.903
653.581
655.123
655.519
654.766
493.682
508.744
523.372
537.5
551.063
564
576.248
587.748
598.444
608.281
617.21
625.184
632.161
638.105
642.982
646.768
649.439
650.981
651.385
650.646
488.996
503.923
518.42
532.422
545.865
558.688
570.828
582.228
592.831
602.583
611.435
619.342
626.261
632.156
636.995
640.751
643.404
644.938
645.343
644.617
482.955
497.702
512.024
525.857
539.139
551.807
563.802
575.065
585.541
595.176
603.923
611.735
618.572
624.398
629.18
632.893
635.515
637.032
637.435
636.719
475.595
490.118
504.222
517.845
530.925
543.4
555.212
566.303
576.618
586.107
594.719
602.412
609.143
614.879
619.587
623.241
625.822
627.315
627.709
627.002
466.96
481.217
495.062
508.434
521.272
533.517
545.11
555.995
566.119
575.43
583.881
591.429
598.033
603.659
608.276
611.859
614.387
615.847
616.229
615.53
457.101
471.05
484.596
497.679
510.24
522.218
533.559
544.206
554.107
563.213
571.477
578.856
585.311
590.809
595.32
598.818
601.284
602.704
603.07
602.377
446.076
459.68
472.89
485.648
497.894
509.573
520.629
531.007
540.658
549.532
557.584
564.772
571.06
576.412
580.801
584.203
586.597
587.971
588.316
587.629
433.953
447.176
460.015
472.413
484.314
495.661
506.402
516.484
525.857
534.474
542.292
549.269
555.37
560.562
564.816
568.11
570.424
571.746
572.068
571.386
)
;
    }
    coldSide
    {
        type            mixed;
        refValue        uniform 300;
        refGradient     uniform 0;
        valueFraction   uniform 0.991591;
        source          uniform 0;
        value           nonuniform List<scalar> 
400
(
300.024
300.025
300.025
300.026
300.027
300.027
300.027
300.028
300.029
300.029
300.03
300.03
300.03
300.031
300.031
300.031
300.031
300.031
300.031
300.031
300.025
300.025
300.026
300.027
300.027
300.028
300.028
300.029
300.029
300.03
300.03
300.03
300.031
300.031
300.031
300.032
300.031
300.032
300.032