/*--------------------------------*- C++ -*----------------------------------*\
| =========                 |                                                 |
| \\      /  F ield         | OpenFOAM: The Open Source CFD Toolbox           |
|  \\    /   O peration     | Version:  2212                                  |
|   \\  /    A nd           | Website:  www.openfoam.com                      |
|    \\/     M anipulation  |                                                 |
\*---------------------------------------------------------------------------*/
FoamFile
{
    version     2.0;
    format      ascii;
    arch        "LSB;label=32;scalar=64";
    class       volScalarField;
    location    "./ITHACAoutput/true/6";
    object      error;
}
// * * * * * * * * * * * * * * * * * * * * * * * * * * * * * * * * * * * * * //

dimensions      [0 0 0 1 0 0 0];

internalField   nonuniform List<scalar> 
3200
(
-3.82252
-1.5307
0.352721
1.81975
2.60191
2.93899
3.16871
3.19217
3.06531
3.02318
2.7577
2.73851
2.60932
2.4424
2.2746
1.93382
1.35175
0.185473
-1.64572
-3.69626
-3.09796
-1.21415
0.429165
1.65402
2.30723
2.62398
2.73856
2.81133
2.65451
2.50677
2.43475
2.38716
2.15335
2.0588
1.93573
1.72662
1.10316
0.020343
-1.49807
-3.19538
-2.41173
-0.983325
0.48276
1.38201
1.92819
2.20669
2.34728
2.349
2.27935
2.14118
1.98732
1.94383
1.86239
1.75273
1.67403
1.37719
0.900724
-0.0359884
-1.2959
-2.70233
-1.95942
-0.813558
0.404379
1.15604
1.59286
1.84072
1.95806
1.84049
1.88363
1.73093
1.65246
1.57492
1.49114
1.38202
1.21818
1.0893
0.702614
-0.0173778
-1.08909
-2.16186
-1.45164
-0.548706
0.325693
0.895655
1.32955
1.42238
1.51625
1.47685
1.47781
1.37195
1.3183
1.19108
1.07843
1.12661
0.937516
0.823491
0.56908
0.0519325
-0.846589
-1.70528
-1.01519
-0.370059
0.24494
0.68678
0.993932
1.00898
1.10282
1.13431
1.0156
0.935509
0.920276
0.919026
0.866888
0.751693
0.693019
0.618949
0.337716
-0.00210587
-0.646189
-1.19483
-0.648891
-0.227957
0.129288
0.446521
0.555771
0.620429
0.675784
0.563311
0.60692
0.607897
0.610613
0.485307
0.491055
0.464341
0.417778
0.37221
0.167992
-0.0235498
-0.412521
-0.652144
-0.15319
-0.121014
0.0209328
0.109771
0.133762
0.253974
0.159064
0.127322
0.206161
0.180498
0.0966273
0.168838
0.159134
0.16368
0.15776
0.093571
0.043769
-0.00123138
-0.187503
-0.2328
-3.71265
-1.56388
0.378725
1.66371
2.45049
2.79247
2.95236
2.8803
2.64265
2.55858
2.37609
2.31271
2.18088
2.13536
2.10749
1.70033
1.13042
0.0557496
-1.70057
-3.67848
-3.09503
-1.20672
0.382427
1.50754
2.08411
2.48057
2.49811
2.4914
2.3625
2.15925
2.06576
1.8637
1.8579
1.79319
1.67686
1.4655
0.860536
0.00750985
-1.55227
-3.17582
-2.4692
-0.917534
0.301198
1.32692
1.85678
2.11069
2.18233
2.04382
2.0006
1.85665
1.71603
1.6752
1.54623
1.46757
1.39766
1.21302
0.778098
-0.125976
-1.36758
-2.68459
-1.91839
-0.785847
0.368849
1.09273
1.52131
1.76231
1.72377
1.78039
1.67799
1.46609
1.46962
1.33346
1.16749
1.21563
1.1062
0.926628
0.553125
-0.0485709
-1.09137
-2.21494
-1.43053
-0.535981
0.204806
0.808442
1.14828
1.32663
1.40309
1.39044
1.34284
1.12235
1.12632
0.97388
0.964672
0.988509
0.89509
0.730134
0.485309
-0.068273
-0.891667
-1.70501
-1.0241
-0.346814
0.299122
0.562522
0.876963
1.03702
1.0309
1.00276
0.893892
0.868155
0.78807
0.741006
0.733072
0.578954
0.589248
0.559832
0.28946
-0.0733975
-0.541031
-1.23555
-0.601591
-0.204329
0.0615348
0.389605
0.562007
0.595842
0.555243
0.638779
0.480732
0.558878
0.439669
0.389851
0.441688
0.370364
0.349812
0.346126
0.224303
-0.0573569
-0.379386
-0.749016
-0.203349
-0.115428
0.0208259
0.207495
0.223971
0.180106
0.209662
0.198411
0.172748
0.0895593
0.155983
0.151023
0.144736
0.229581
0.193872
0.105073
0.122911
-0.0314304
-0.063697
-0.22496
-3.81833
-1.53613
0.289893
1.48699
2.20916
2.46148
2.43774
2.39214
2.11211
1.80712
1.71441
1.55627
1.57815
1.5869
1.53383
1.34346
0.927041
-0.226694
-1.82967
-3.77657
-3.09853
-1.32917
0.275207
1.39831
1.91754
2.24313
2.08988
2.08363
1.91102
1.58408
1.544
1.29036
1.31639
1.36784
1.28892
1.15061
0.738235
-0.103654
-1.65692
-3.23171
-2.47643
-0.976757
0.242751
1.18942
1.65867
1.95396
1.88407
1.71693
1.61051
1.30889
1.26471
1.11185
1.14842
1.16145
1.09101
0.926132
0.556842
-0.155478
-1.43879
-2.738
-1.89499
-0.842416
0.269137
0.938858
1.42601
1.58167
1.54721
1.46458
1.30857
1.18419
1.03951
0.93729
0.84228
0.866377
0.803548
0.740953
0.430699
-0.219767
-1.19289
-2.35461
-1.49436
-0.601024
0.18137
0.843889
1.102
1.213
1.24566
1.22163
1.07892
0.853666
0.77658
0.633598
0.665881
0.694015
0.717339
0.58113
0.349737
-0.143168
-0.951676
-1.76256
-1.02243
-0.497461
0.100562
0.492257
0.836605
0.896407
1.00991
0.817595
0.738521
0.666102
0.453586
0.543837
0.468718
0.484357
0.521174
0.428378
0.189899
-0.159406
-0.655692
-1.22436
-0.659914
-0.282068
0.147499
0.339483
0.432497
0.477107
0.520152
0.429972
0.430053
0.347904
0.35255
0.225147
0.303922
0.269791
0.325262
0.204854
0.112512
-0.128745
-0.395003
-0.727307
-0.223857
-0.0935098
0.00325867
0.160076
0.147291
0.180264
0.180434
0.217958
0.176745
0.0941497
0.132638
0.112708
0.144206
0.0630736
0.10954
0.0831047
0.014557
-0.100174
-0.165936
-0.235995
-3.85203
-1.87313
-0.0883539
1.13273
1.79969
1.99354
1.94714
1.70898
1.46027
1.10972
0.831473
0.743979
0.830918
0.897863
0.980586
0.891861
0.520055
-0.519
-2.04449
-3.93037
-3.22919
-1.54667
0.0769366
1.05033
1.69883
1.76878
1.70031
1.55458
1.23007
0.950484
0.829142
0.683986
0.713405
0.755075
0.862028
0.700898
0.349687
-0.456181
-1.87188
-3.55754
-2.60621
-1.23545
0.106085
0.899111
1.43571
1.47309
1.51161
1.29841
1.10104
0.824209
0.668283
0.566929
0.555259
0.63266
0.688986
0.600635
0.320071
-0.454154
-1.58388
-2.85311
-1.98215
-0.970475
0.110836
0.772849
1.19665
1.30987
1.23922
1.08518
0.89261
0.585126
0.545765
0.493064
0.469995
0.468993
0.534171
0.521539
0.199805
-0.434756
-1.3911
-2.35951
-1.50924
-0.677811
0.0819235
0.677999
0.944288
1.0056
0.953159
0.795155
0.673446
0.54225
0.403718
0.406313
0.391924
0.400591
0.435111
0.384227
0.160401
-0.357427
-1.00324
-1.74649
-1.04776
-0.508922
0.118054
0.526644
0.727681
0.711278
0.689072
0.647651
0.514994
0.413907
0.300691
0.306672
0.243816
0.243525
0.321482
0.226549
0.0432562
-0.245187
-0.836116
-1.31193
-0.684426
-0.26865
0.0122749
0.247802
0.474674
0.477238
0.510628
0.418493
0.257629
0.175665
0.235041
0.175516
0.0948861
0.178037
0.203835
0.183059
0.130076
-0.132688
-0.48068
-0.795528
-0.218692
-0.089988
0.01607
0.143682
0.148317
0.182599
0.187675
0.166871
0.122079
0.123364
0.115385
0.101405
-0.0319482
0.0116454
0.0875906
0.0843068
0.00774876
-0.00132866
-0.139256
-0.239606
-4.13098
-2.20361
-0.392389
0.772218
1.38089
1.48521
1.34132
1.01681
0.618887
0.230966
-0.0304785
-0.130198
-0.0947225
0.198876
0.333795
0.319042
-0.0559638
-0.948186
-2.4517
-4.14392
-3.42339
-1.75436
-0.236241
0.661905
1.1655
1.23953
1.2317
0.949549
0.603994
0.289005
0.020685
-0.0702216
0.0156055
0.119973
0.267651
0.245203
-0.0961537
-0.93563
-2.15169
-3.66139
-2.73938
-1.50441
-0.165774
0.624296
1.06708
1.18482
1.07598
0.796274
0.53817
0.2527
-0.0082872
-0.147295
-0.0795908
0.106796
0.221249
0.199653
-0.0982684
-0.81256
-1.89444
-3.06022
-2.19036
-1.06727
-0.0868354
0.546986
0.934414
1.0793
0.881555
0.703376
0.463049
0.215735
-0.0225442
-0.0886806
-0.0358886
0.0582836
0.176227
0.140454
-0.0828502
-0.663762
-1.5321
-2.56241
-1.62257
-0.809052
-0.0392179
0.546142
0.733991
0.714942
0.637507
0.537545
0.387322
0.129466
0.010853
-0.0380453
-0.0440457
0.0251938
0.0726054
0.073471
-0.148375
-0.525078
-1.25148
-1.97555
-1.06381
-0.549101
-0.0350623
0.34381
0.536899
0.511271
0.551594
0.410096
0.251169
0.182567
-0.0413613
0.000286552
-0.0726899
-0.0514559
0.110025
0.14813
-0.0648046
-0.432273
-0.862477
-1.44988
-0.685403
-0.316952
0.0324433
0.175771
0.23253
0.337797
0.33094
0.258585
0.131457
0.071054
-0.0208784
-0.0218449
-0.0513539
-0.0217033
0.03696
0.060912
-0.0696934
-0.217505
-0.548539
-0.809012
-0.260011
-0.102804
0.00206977
0.105253
0.102618
0.137157
0.140367
0.0168952
0.0225633
0.0200669
0.0893957
-0.0588897
0.0487855
0.0911276
-0.0467063
0.00552008
0.0324679
-0.0547795
-0.165953
-0.347498
-4.44556
-2.53357
-0.857622
0.179552
0.865954
0.931659
0.729189
0.295109
-0.0864337
-0.579768
-0.880169
-0.978724
-0.853829
-0.593765
-0.358671
-0.27106
-0.60205
-1.46822
-2.92254
-4.59232
-3.70746
-2.05229
-0.635714
0.30124
0.742611
0.847002
0.665068
0.342024
-0.060065
-0.535017
-0.84076
-0.858658
-0.758262
-0.443487
-0.196549
-0.275763
-0.565123
-1.34863
-2.58232
-3.92906
-2.99316
-1.71301
-0.454501
0.289351
0.648549
0.739947
0.495999
0.338841
-0.0885704
-0.312492
-0.605365
-0.655875
-0.649986
-0.523888
-0.292
-0.234788
-0.517627
-1.15734
-2.25863
-3.35133
-2.38868
-1.29569
-0.434157
0.335202
0.546757
0.676619
0.518215
0.270954
-0.0382343
-0.346325
-0.439573
-0.622086
-0.48351
-0.411359
-0.280494
-0.273459
-0.33509
-0.898656
-1.79049
-2.7143
-1.74369
-1.10185
-0.223734
0.247442
0.460836
0.506306
0.430829
0.254497
0.00631443
-0.212478
-0.333492
-0.385072
-0.392437
-0.306159
-0.180134
-0.163222
-0.323128
-0.734484
-1.45358
-2.08323
-1.24051
-0.631544
-0.141999
0.145708
0.29881
0.400022
0.32085
0.170261
0.0394832
-0.190323
-0.292916
-0.293075
-0.3536
-0.238048
-0.133424
-0.210597
-0.260508
-0.502682
-1.03203
-1.57956
-0.769427
-0.434808
-0.11692
0.157944
0.192873
0.183783
0.237137
0.110373
0.0120858
-0.13593
-0.167216
-0.186477
-0.189325
-0.107884
-0.0794384
-0.139698
-0.207599
-0.375411
-0.54642
-0.89515
-0.230167
-0.166095
-0.0221442
0.00125609
0.0538606
0.116071
-0.00790027
0.0732242
-0.013823
-0.0378291
-0.0305015
-0.0720983
-0.0521429
0.0107773
0.0366005
-0.0776693
-0.0556456
-0.142432
-0.166201
-0.280505
-4.71675
-2.94962
-1.37332
-0.279084
0.282981
0.360553
0.0963392
-0.352924
-0.809085
-1.35404
-1.76022
-1.80531
-1.5774
-1.25812
-0.979414
-0.897074
-1.17703
-1.92655
-3.27359
-4.90212
-3.89112
-2.40614
-1.05595
-0.167631
0.237856
0.368779
0.165043
-0.167892
-0.64792
-1.14343
-1.38249
-1.56262
-1.38324
-1.07144
-0.858779
-0.83647
-1.07897
-1.78242
-2.91162
-4.25434
-3.15099
-2.03057
-0.839201
-0.0636155
0.356524
0.293226
0.207173
-0.125143
-0.559137
-0.943379
-1.17264
-1.3382
-1.11718
-0.907178
-0.651352
-0.695555
-0.937374
-1.52623
-2.46303
-3.54599
-2.60264
-1.57077
-0.547512
-0.0641658
0.256906
0.333924
0.189069
-0.173503
-0.432324
-0.78298
-0.982171
-1.11603
-0.932305
-0.881041
-0.524923
-0.65907
-0.741666
-1.34415
-2.05809
-2.94453
-1.89521
-1.21127
-0.485689
0.00389971
0.291376
0.241428
0.118438
-0.0632908
-0.409028
-0.620097
-0.809076
-0.850629
-0.792989
-0.626303
-0.49302
-0.556107
-0.545974
-1.07754
-1.64544
-2.19744
-1.35279
-0.767545
-0.314548
0.0779999
0.120183
0.216889
0.133499
-0.0421548
-0.215426
-0.367349
-0.428487
-0.548633
-0.497465
-0.387592
-0.342592
-0.309194
-0.407027
-0.63211
-1.06534
-1.55738
-0.767639
-0.454984
-0.206546
-0.0101028
0.0976947
0.13993
0.0816089
-0.0374957
-0.149997
-0.20755
-0.339307
-0.271747
-0.324989
-0.332713
-0.228589
-0.213808
-0.24957
-0.432115
-0.739461
-1.03114
-0.28421
-0.184071
-0.019043
-0.0211799
0.0480345
0.0206363
0.0289478
-0.0144811
-0.046189
-0.121482
-0.151789
-0.125188
-0.10127
-0.124058
-0.0872265
-0.0362083
-0.0823307
-0.113269
-0.285868
-0.345426
-4.94261
-3.23944
-1.7752
-0.726249
-0.156698
-0.216417
-0.498876
-0.951028
-1.47635
-2.05098
-2.37778
-2.45769
-2.27834
-1.88358
-1.55187
-1.43935
-1.69807
-2.45543
-3.71439
-5.23242
-4.15498
-2.73765
-1.39864
-0.529859
-0.18437
-0.0691406
-0.312872
-0.66084
-1.20821
-1.87205
-2.02639
-2.13265
-2.01283
-1.69792
-1.37201
-1.16914
-1.45433
-2.23502
-3.26096
-4.55839
-3.4299
-2.23644
-1.15805
-0.344528
-0.0504043
-0.0206863
-0.197215
-0.565156
-1.02461
-1.45083
-1.74317
-1.7589
-1.57791
-1.38008
-1.13625
-1.07113
-1.27048
-1.8829
-2.82179
-3.73106
-2.57346
-1.74562
-0.89514
-0.312803
0.0103275
-0.0259795
-0.116932
-0.483562
-0.795029
-1.16283
-1.3535
-1.4434
-1.28774
-1.16534
-0.974465
-0.869489
-1.09254
-1.53584
-2.31843
-3.11517
-2.06917
-1.30461
-0.707427
-0.268886
-0.0559621
0.0866974
-0.086878
-0.328027
-0.595214
-0.911646
-1.10745
-1.0635
-1.04131
-0.90782
-0.821253
-0.666257
-0.89853
-1.19027
-1.80447
-2.42949
-1.39027
-0.955253
-0.401943
-0.153565
-0.0402225
0.104335
-0.0553179
-0.26607
-0.445755
-0.642793
-0.727202
-0.802815
-0.788907
-0.629209
-0.545157
-0.528844
-0.637823
-0.863282
-1.26153
-1.73284
-0.858466
-0.562506
-0.216433
-0.118984
0.0789046
-0.0102197
-0.0804833
-0.100172
-0.284532
-0.423314
-0.465649
-0.472876
-0.432679
-0.378965
-0.35526
-0.242833
-0.376689
-0.505829
-0.772776
-1.09152
-0.253582
-0.174373
-0.137699
-0.0964974
-0.0321075
0.0153938
0.0138648
-0.136026
-0.0929843
-0.123408
-0.180417
-0.155054
-0.128151
-0.14125
-0.0740473
-0.152156
-0.162694
-0.220175
-0.261651
-0.375525
-5.25848
-3.59533
-2.09658
-1.10481
-0.557128
-0.532466
-0.822781
-1.30208
-1.97506
-2.55819
-2.91717
-2.98213
-2.8729
-2.39674
-1.98727
-1.91295
-2.06924
-2.86524
-4.01018
-5.49607
-4.43142
-2.99616
-1.70859
-0.878401
-0.497921
-0.405231
-0.69226
-1.13781
-1.66051
-2.13804
-2.50987
-2.62833
-2.35971
-2.04623
-1.78988
-1.63763
-1.88019
-2.43971
-3.57352
-4.71199
-3.53383
-2.43479
-1.39276
-0.746784
-0.25235
-0.294819
-0.580332
-0.865549
-1.35239
-1.83068
-2.08212
-2.16197
-2.06009
-1.77112
-1.49361
-1.38346
-1.5831
-2.01277
-3.00867
-4.04064
-2.83388
-1.88029
-1.10642
-0.466864
-0.213169
-0.155842
-0.461271
-0.703158
-1.11104
-1.46044
-1.71702
-1.79126
-1.66573
-1.41514
-1.19979
-1.09264
-1.29906
-1.67344
-2.39901
-3.25285
-2.12558
-1.49497
-0.800474
-0.293282
-0.212954
-0.0762146
-0.307273
-0.58479
-0.874138
-1.08215
-1.2818
-1.30997
-1.35731
-1.06273
-0.898759
-0.898553
-0.998763
-1.39025
-1.90513
-2.42637
-1.49731
-1.01573
-0.560079
-0.357903
-0.152682
-0.0437919
-0.192238
-0.330511
-0.606157
-0.820421
-0.835741
-0.973373
-0.836743
-0.713216
-0.682106
-0.601226
-0.733823
-0.958217
-1.33217
-1.81407
-0.938724
-0.593736
-0.446429
-0.168224
-0.0251344
-0.0131455
-0.162488
-0.214197
-0.278589
-0.388338
-0.454851
-0.51157
-0.477414
-0.485084
-0.355131
-0.393328
-0.457267
-0.558197
-0.898477
-1.14087
-0.248155
-0.217825
-0.149287
-0.0555273
-0.00349015
-0.0169544
-0.0120977
-0.0330051
-0.10112
-0.161301
-0.135608
-0.194969
-0.186788
-0.141214
-0.0781658
-0.0265892
-0.177091
-0.177534
-0.255911
-0.310424
-5.37943
-3.81719
-2.43189
-1.35432
-0.946906
-0.813878
-1.11095
-1.64415
-2.25431
-2.85607
-3.22938
-3.30414
-2.99442
-2.61258
-2.21306
-2.12858
-2.31291
-3.03192
-4.18354
-5.62902
-4.45327
-3.14569
-1.89912
-1.12897
-0.686723
-0.639352
-0.86587
-1.35948
-1.91839
-2.47106
-2.72512
-2.87198
-2.62646
-2.25819
-1.97214
-1.83784
-2.03803
-2.64551
-3.70117
-4.77644
-3.63423
-2.60262
-1.50305
-0.890841
-0.502378
-0.447319
-0.70083
-1.11358
-1.59909
-2.0323
-2.3197
-2.40203
-2.18601
-1.90841
-1.67214
-1.56107
-1.75174
-2.24892
-3.0727
-3.99807
-2.87844
-2.06473
-1.27224
-0.637154
-0.361519
-0.330449
-0.556665
-0.904241
-1.3311
-1.58446
-1.84155
-1.9338
-1.84566
-1.57008
-1.35161
-1.23842
-1.36297
-1.84784
-2.5258
-3.33331
-2.19158
-1.59991
-0.968064
-0.52304
-0.27763
-0.223218
-0.384855
-0.597956
-0.952612
-1.29178
-1.46451
-1.46992
-1.3357
-1.27987
-1.09294
-0.979451
-1.15657
-1.45654
-1.94919
-2.54922
-1.56875
-1.12629
-0.632786
-0.346177
-0.219528
-0.25036
-0.210182
-0.454146
-0.622665
-0.953894
-1.02597
-1.02596
-0.99703
-0.871049
-0.697419
-0.715336
-0.829913
-1.0279
-1.37606
-1.81035
-0.869014
-0.593271
-0.422316
-0.221716
-0.150715
-0.153587
-0.135295
-0.273754
-0.326781
-0.535415
-0.581306
-0.6678
-0.641498
-0.525928
-0.466207
-0.462965
-0.512237
-0.564069
-0.871433
-1.08904
-0.313635
-0.20598
-0.163561
-0.0810532
-0.0249044
-0.0646304
-0.119085
-0.116526
-0.126681
-0.137135
-0.262335
-0.140498
-0.217833
-0.248654
-0.144656
-0.186105
-0.178504
-0.253197
-0.319969
-0.415203
-5.36986
-3.80026
-2.40832
-1.58083
-1.0171
-0.960085
-1.20221
-1.62722
-2.31783
-2.92817
-3.31976
-3.36124
-3.09744
-2.68228
-2.35044
-2.19203
-2.42922
-3.12127
-4.20855
-5.50788
-4.52168
-3.22421
-2.03264
-1.22994
-0.862224
-0.765646
-0.95171
-1.35836
-1.99641
-2.48431
-2.82517
-2.84349
-2.72737
-2.38012
-2.03768
-1.9559
-2.08242
-2.70432
-3.76921
-4.88468
-3.68151
-2.58841
-1.66627
-0.918861
-0.678663
-0.572392
-0.75906
-1.12428
-1.59651
-2.10678
-2.3026
-2.4354
-2.22388
-1.96995
-1.72645
-1.5772
-1.81359
-2.32045
-3.10151
-3.96147
-2.96058
-2.09225
-1.28984
-0.767749
-0.473476
-0.394507
-0.647327
-0.990482
-1.26964
-1.73575
-1.89945
-2.02174
-1.85448
-1.59918
-1.44939
-1.32795
-1.5393
-1.91709
-2.64616
-3.25716
-2.16132
-1.51334
-0.966308
-0.548702
-0.318316
-0.348962
-0.405879
-0.693128
-1.03543
-1.30508
-1.4822
-1.51361
-1.4069
-1.28459
-1.07613
-1.04548
-1.14562
-1.50717
-1.97012
-2.54334
-1.58059
-1.14993
-0.674942
-0.381307
-0.278004
-0.23731
-0.286422
-0.583842
-0.682265
-0.819074
-1.07938
-1.11396
-1.07287
-0.869823
-0.746471
-0.766349
-0.886661
-1.038
-1.46209
-1.75663
-0.947128
-0.584655
-0.360497
-0.167055
-0.055992
-0.114283
-0.22178
-0.313352
-0.360389
-0.547507
-0.579706
-0.69713
-0.65936
-0.498967
-0.500822
-0.458742
-0.582482
-0.696975
-0.807014
-1.10431
-0.324846
-0.2858
-0.0420511
-0.0400883
-0.031215
-0.0115424
-0.0829177
-0.0584231
-0.132563
-0.215421
-0.202576
-0.240199
-0.21871
-0.167978
-0.0833477
-0.100775
-0.216012
-0.159556
-0.297815
-0.379704
-5.13272
-3.77511
-2.38499
-1.4964
-1.01303
-0.861067
-1.16473
-1.64771
-2.13637
-2.75527
-3.07059
-3.10624
-2.84925
-2.53388
-2.21913
-2.16281
-2.24225
-3.03081
-4.04314
-5.30287
-4.39918
-3.16602
-2.01133
-1.21313
-0.846786
-0.673172
-0.946039
-1.31579
-1.84992
-2.30811
-2.55606
-2.6586
-2.50429
-2.21839
-1.99706
-1.91216
-2.03764
-2.58704
-3.6013
-4.56907
-3.60546
-2.57008
-1.51081
-0.981239
-0.612112
-0.527149
-0.713634
-1.0142
-1.57935
-1.86031
-2.10392
-2.21229
-2.0603
-1.85004
-1.64934
-1.56513
-1.82105
-2.23668
-2.95978
-3.84991
-2.76892
-2.0409
-1.16391
-0.716732
-0.496907
-0.421127
-0.57708
-0.832729
-1.18549
-1.5156
-1.75427
-1.83168
-1.70438
-1.45939
-1.33251
-1.29095
-1.41582
-1.88468
-2.42961
-3.10145
-2.13437
-1.49837
-0.990676
-0.472614
-0.300442
-0.338402
-0.418047
-0.625438
-0.929446
-1.21193
-1.31848
-1.42197
-1.25908
-1.15925
-1.04335
-0.991549
-1.03437
-1.37438
-1.95198
-2.44156
-1.48953
-1.05479
-0.66695
-0.375941
-0.229705
-0.193088
-0.280442
-0.453126
-0.586937
-0.785536
-0.948229
-0.94825
-0.863021
-0.84345
-0.678617
-0.663844
-0.816958
-1.04467
-1.35878
-1.68193
-0.882492
-0.65089
-0.414491
-0.205338
-0.11696
-0.101886
-0.148862
-0.302927
-0.311054
-0.557312
-0.578389
-0.536442
-0.582119
-0.493893
-0.428412
-0.421376
-0.421669
-0.608604
-0.831242
-1.04884
-0.234037
-0.246368
-0.145496
-0.0730381
-0.140496
-0.0543926
-0.0284076
-0.0911904
-0.162688
-0.149823
-0.210925
-0.180174
-0.172512
-0.17809
-0.177687
-0.130545
-0.0807603
-0.173239
-0.256442
-0.387635
-4.90291
-3.47586
-2.21506
-1.21675
-0.789204
-0.678415
-0.865229
-1.28379
-1.79572
-2.24051
-2.49531
-2.59942
-2.47018
-2.20712
-1.85908
-1.82688
-2.05094
-2.70894
-3.77454
-4.93457
-4.06519
-2.87168
-1.81304
-0.975484
-0.55403
-0.459549
-0.687014
-1.06715
-1.50416
-1.9319
-2.24118
-2.1848
-2.12238
-1.89253
-1.54402
-1.51315
-1.84675
-2.33748
-3.30641
-4.27577
-3.32085
-2.30499
-1.46966
-0.706458
-0.429545
-0.360939
-0.571387
-0.898961
-1.23383
-1.61056
-1.84227
-1.8707
-1.73782
-1.57162
-1.37471
-1.31039
-1.62076
-2.0612
-2.78917
-3.63238
-2.65541
-1.85865
-1.12819
-0.592934
-0.346617
-0.203647
-0.365428
-0.578291
-0.995284
-1.23851
-1.50065
-1.55233
-1.42499
-1.27889
-1.10378
-1.0993
-1.28288
-1.63491
-2.23252
-2.8915
-1.99102
-1.45877
-0.87149
-0.459122
-0.218085
-0.185259
-0.214041
-0.463163
-0.780208
-0.911816
-1.12773
-1.06277
-1.09652
-1.02881
-0.840644
-0.89198
-0.942944
-1.30946
-1.75373
-2.27661
-1.39901
-0.957642
-0.573231
-0.286867
-0.0851491
-0.107841
-0.255463
-0.35992
-0.544525
-0.65766
-0.774506
-0.795812
-0.830071
-0.617632
-0.637689
-0.688819
-0.666972
-0.888709
-1.30415
-1.66028
-0.852654
-0.553347
-0.367218
-0.173441
-0.07873
-0.0640358
-0.122382
-0.177662
-0.289708
-0.395043
-0.463646
-0.532088
-0.359997
-0.42754
-0.344062
-0.365097
-0.449421
-0.524934
-0.767458
-0.932189
-0.264402
-0.211612
-0.0134965
0.0164123
-0.0196698
0.00404135
-0.0369459
-0.0905825
-0.0797205
-0.103063
-0.146451
-0.206526
-0.127445
-0.146946
-0.102382
-0.162704
-0.129533
-0.18347
-0.206039
-0.257936
-4.45216
-3.13668
-1.80194
-0.911854
-0.397789
-0.209455
-0.359459
-0.7118
-1.15751
-1.54111
-1.84408
-1.89257
-1.74785
-1.55597
-1.35023
-1.31278
-1.60839
-2.23078
-3.24541
-4.42169
-3.65462
-2.53291
-1.51997
-0.656034
-0.291429
-0.119679
-0.233044
-0.570927
-0.942318
-1.25103
-1.55758
-1.6788
-1.48555
-1.2592
-1.12482
-1.10693
-1.40539
-1.94841
-2.81276
-3.87146
-2.98311
-2.07568
-1.13438
-0.475439
-0.112568
-0.0494151
-0.102946
-0.437734
-0.766561
-1.06565
-1.24719
-1.35971
-1.28695
-1.10436
-1.01273
-0.92571
-1.13856
-1.69062
-2.37042
-3.24729
-2.37248
-1.6249
-0.902535
-0.32634
-0.0798536
0.10775
-0.0837197
-0.314464
-0.670009
-0.869343
-1.06137
-1.00405
-0.995275
-0.943198
-0.831369
-0.805918
-0.803432
-1.32531
-2.02411
-2.65679
-1.66878
-1.23651
-0.541552
-0.213695
-0.0389702
0.0916105
-0.0264028
-0.202601
-0.516095
-0.669505
-0.727011
-0.763858
-0.796465
-0.679709
-0.559034
-0.514526
-0.730094
-1.05106
-1.53043
-2.03893
-1.23975
-0.881489
-0.497775
-0.15758
-0.0214903
0.0650846
-0.0546266
-0.155974
-0.341033
-0.444352
-0.56551
-0.556679
-0.546006
-0.42558
-0.48852
-0.484319
-0.490136
-0.809305
-0.989679
-1.44262
-0.750677
-0.512294
-0.266554
-0.046894
-0.0146891
0.0298357
-0.0132667
-0.00472411
-0.160107
-0.313573
-0.3526
-0.299706
-0.287359
-0.250229
-0.245269
-0.309896
-0.356976
-0.345256
-0.563306
-0.890731
-0.247218
-0.195982
-0.103418
-0.0247683
-0.0372334
0.0305426
-0.0411697
-0.0503362
-0.0325499
-0.10886
-0.108944
-0.161205
-0.162207
-0.100139
-0.0513573
-0.109194
-0.139644
-0.155658
-0.218379
-0.25741
-3.88785
-2.5072
-1.22064
-0.354104
0.182918
0.368843
0.263313
-0.00832685
-0.387729
-0.722227
-0.928422
-0.954841
-0.876788
-0.673126
-0.468877
-0.594212
-0.902472
-1.54645
-2.55608
-3.7332
-3.14862
-2.01967
-0.911453
-0.137182
0.180143
0.394191
0.331363
0.0370657
-0.193653
-0.494761
-0.732621
-0.747231
-0.713838
-0.554687
-0.485075
-0.561057
-0.739527
-1.34338
-2.29756
-3.18056
-2.4606
-1.60797
-0.710364
-0.10078
0.290367
0.466677
0.265154
0.195971
-0.085793
-0.41656
-0.601134
-0.620247
-0.555668
-0.444636
-0.40988
-0.43049
-0.650926
-1.17541
-1.80269
-2.70325
-1.95351
-1.24929
-0.522642
-0.0310766
0.250417
0.424643
0.306898
0.145493
-0.0737151
-0.235503
-0.479082
-0.530043
-0.486929
-0.38328
-0.285293
-0.284738
-0.465908
-0.850594
-1.48111
-2.19335
-1.40628
-0.887029
-0.394709
0.0940465
0.314707
0.349073
0.32994
0.0660781
-0.136657
-0.263745
-0.382396
-0.388298
-0.363857
-0.249882
-0.196053
-0.260281
-0.341989
-0.720645
-1.18674
-1.69705
-1.01205
-0.608579
-0.279202
0.00523528
0.203903
0.283921
0.235953
0.199547
-0.0392891
-0.165556
-0.176565
-0.278097
-0.238503
-0.174754
-0.183293
-0.185294
-0.204005
-0.58346
-0.82495
-1.21433
-0.531095
-0.366725
-0.144135
-0.024753
0.10139
0.106713
0.113113
0.0685549
-0.0251153
-0.0737051
-0.186618
-0.14516
-0.173992
-0.192873
-0.087842
-0.115408
-0.156239
-0.253017
-0.500385
-0.691947
-0.185763
-0.0834311
-0.0387223
-0.0186096
0.130999
0.0386108
0.0209801
0.0241236
0.0456353
0.0344279
-0.103994
-0.0303947
-0.0694794
-0.116929
0.0123286
0.00787675
-0.0377788
-0.0871932
-0.20248
-0.222289
-3.03545
-1.70379
-0.494965
0.43711
0.9138
1.13869
1.07475
0.872517
0.685646
0.310645
0.130984
0.232416
0.21081
0.370418
0.37058
0.365684
-0.0762131
-0.70243
-1.70251
-2.94474
-2.46476
-1.37026
-0.311108
0.427704
0.919055
1.18477
1.07431
0.905994
0.625308
0.359966
0.162308
0.118406
0.229668
0.329251
0.310683
0.336564
-0.0402355
-0.598485
-1.47669
-2.4602
-1.94858
-1.02047
-0.125899
0.442988
0.870742
0.969471
1.04319
0.802402
0.58365
0.281981
0.228328
0.106773
0.241393
0.390489
0.35493
0.242506
-0.0569779
-0.49971
-1.29436
-2.00232
-1.51325
-0.77707
-0.039396
0.408666
0.709207
0.903349
0.807141
0.654468
0.461479
0.340113
0.18683
0.105141
0.24582
0.148009
0.25604
0.237954
-0.00957819
-0.368533
-1.05019
-1.60898
-1.05025
-0.612404
-0.0177827
0.406179
0.652915
0.669521
0.677997
0.56252
0.426749
0.299104
0.169592
0.0818826
0.14251
0.137888
0.234012
0.0638401
-0.00455724
-0.277556
-0.772489
-1.35312
-0.757943
-0.389957
-0.000444218
0.329023
0.482914
0.508542
0.41834
0.471811
0.306134
0.108638
0.137602
0.0699508
0.120646
0.180612
0.12813
0.167773
0.0506837
-0.265371
-0.630172
-0.927507
-0.443549
-0.278231
0.00301412
0.154819
0.236032
0.265165
0.329485
0.23485
0.162038
0.115949
0.0981989
0.0609475
0.0707278
0.110462
0.0724924
0.0949474
0.0496058
-0.168592
-0.318148
-0.558611
-0.136604
-0.0238622
0.0372085
0.100524
0.0550962
0.0455362
0.111556
0.148813
0.0902273
0.0153781
0.059158
-0.019377
0.0217174
0.00179812
0.00930966
0.028803
-0.0145114
-0.0341712
-0.131167
-0.167957
-2.12696
-0.823011
0.405876
1.30252
1.86676
2.10022
2.14104
2.03945
1.85495
1.56903
1.46609
1.35976
1.4529
1.55674
1.54435
1.38479
1.03981
0.259113
-0.697959
-1.9348
-1.67282
-0.596498
0.488906
1.25469
1.76553
2.05683
1.91231
1.77776
1.69479
1.49375
1.34851
1.25072
1.20302
1.30275
1.30347
1.24793
0.950862
0.26202
-0.650525
-1.59016
-1.24113
-0.425388
0.549629
1.08832
1.51784
1.76621
1.79484
1.57085
1.46069
1.31489
1.05451
1.12236
1.14538
1.10758
1.12827
1.02532
0.737056
0.262328
-0.48539
-1.25559
-0.997015
-0.280588
0.456738
0.936953
1.34044
1.50617
1.41313
1.27242
1.1974
1.03848
0.941473
1.00572
0.897632
0.967161
0.92741
0.771268
0.630839
0.169445
-0.409124
-1.00016
-0.682757
-0.153998
0.432468
0.770527
1.04665
1.14456
1.09269
1.06934
0.894701
0.783607
0.788734
0.699945
0.728024
0.72334
0.684653
0.674191
0.463407
0.173758
-0.290494
-0.756319
-0.526722
-0.123089
0.26596
0.63695
0.751342
0.77468
0.831533
0.766562
0.679324
0.601833
0.59377
0.475839
0.481854
0.489066
0.579601
0.441462
0.330436
0.060715
-0.221671
-0.591652
-0.282047
-0.090401
0.115134
0.333063
0.481914
0.525371
0.464429
0.495388
0.436664
0.357187
0.298621
0.297242
0.367765
0.310456
0.247429
0.287091
0.190083
0.0792086
-0.134503
-0.301022
-0.0121134
-0.00737508
0.060698
0.158454
0.127586
0.192242
0.215875
0.209304
0.151386
0.146789
0.0926552
0.120389
0.0834268
0.0784783
0.157043
0.0956852
0.0380361
0.0111929
-0.048426
-0.162852
-1.08602
0.150191
1.47089
2.37004
2.93959
3.1477
3.30473
3.24838
3.17977
2.87627
2.78407
2.73549
2.75115
2.8277
2.65859
2.53698
2.17578
1.35778
0.366509
-0.832925
-0.743364
0.342133
1.33388
2.13048
2.57083
2.83552
2.91376
2.8558
2.77136
2.51135
2.4686
2.35564
2.4454
2.40649
2.40075
2.20666
1.80465
1.26691
0.335887
-0.565331
-0.481586
0.403886
1.17188
1.83024
2.23034
2.46928
2.53937
2.47034
2.33951
2.19996
2.11159
1.99139
2.14289
2.04051
2.00766
1.93583
1.59654
1.0652
0.29369
-0.41955
-0.385306
0.311432
1.02682
1.61651
1.96625
2.06795
2.12942
1.96008
1.87148
1.80405
1.76364
1.7213
1.60842
1.67322
1.64382
1.54002
1.21931
0.780224
0.291073
-0.384451
-0.116378
0.360456
0.913862
1.23804
1.55555
1.63092
1.63309
1.59573
1.51673
1.45703
1.29642
1.29298
1.3395
1.35742
1.37469
1.13721
0.888415
0.705741
0.244169
-0.244035
-0.105664
0.303259
0.61979
0.926264
1.05565
1.24674
1.09847
1.13858
1.14156
1.06377
1.01188
1.00217
0.89564
0.900536
0.89242
0.866969
0.62588
0.486862
0.0767045
-0.252421
-0.0973934
0.24673
0.400665
0.586697
0.676159
0.700446
0.627837
0.747646
0.69196
0.560272
0.571692
0.599037
0.549727
0.570267
0.556359
0.510731
0.396792
0.291189
0.0648323
-0.175442
0.0438662
0.0881947
0.187041
0.157157
0.164916
0.303234
0.169607
0.269431
0.213001
0.266764
0.233951
0.125516
0.150506
0.201837
0.1916
0.191849
0.182728
0.0828045
0.0107152
-0.0374318
0.0223015
1.27043
2.41848
3.34446
4.00901
4.35305
4.47405
4.39814
4.34671
4.23338
4.10407
4.11516
4.03486
4.11539
3.94153
3.79154
3.23423
2.5809
1.48319
0.392144
0.242539
1.27357
2.25114
3.04817
3.60918
3.81573
4.01459
3.85802
3.8684
3.67088
3.61227
3.56652
3.50056
3.54655
3.46339
3.26989
2.77286
2.20043
1.30682
0.356732
0.228031
1.14515
1.97344
2.56169
3.01714
3.32622
3.30542
3.26383
3.23953
3.14673
3.05076
3.03115
2.99304
2.97166
2.94227
2.72066
2.41255
1.85311
1.05344
0.32907
0.325205
0.923533
1.60143
2.08519
2.4601
2.68832
2.75687
2.72367
2.66677
2.53605
2.58163
2.41579
2.40708
2.44379
2.32704
2.24782
1.90445
1.55075
0.873354
0.25095
0.292719
0.782246
1.39201
1.68355
1.96268
2.12136
2.17172
2.08643
2.04741
1.98734
2.00945
1.94533
1.89547
1.95707
1.75699
1.75222
1.46849
1.19242
0.662158
0.190955
0.162954
0.530816
0.923927
1.21973
1.47725
1.50744
1.57612
1.56042
1.44498
1.38091
1.40774
1.37785
1.35447
1.29199
1.28378
1.29848
1.06845
0.802354
0.448646
0.115748
0.116769
0.291435
0.631615
0.739115
0.92499
0.933786
0.910558
1.00835
0.909828
0.877359
0.831682
0.746312
0.795564
0.843862
0.844174
0.78631
0.600583
0.49016
0.261689
-0.0107282
0.0680838
0.117057
0.188454
0.235011
0.339251
0.30078
0.36818
0.290826
0.293155
0.270345
0.181869
0.274838
0.283563
0.233803
0.30744
0.2442
0.168046
0.190625
0.0478819
0.0265509
0.906035
2.2088
3.30088
4.24496
4.86842
5.25129
5.42899
5.44888
5.42495
5.29306
5.25229
5.22252
5.11066
5.1286
4.97948
4.65357
4.17913
3.43944
2.43639
1.27616
0.941214
1.97518
3.03409
3.76831
4.27569
4.61022
4.77019
4.67649
4.60359
4.6312
4.50973
4.41482
4.35727
4.36715
4.30124
4.014
3.50138
2.9158
2.01556
1.12043
0.815997
1.69779
2.50624
3.09641
3.69875
3.85877
4.00351
3.95908
3.91191
3.85671
3.83921
3.72143
3.69395
3.63025
3.57115
3.32241
3.01373
2.46997
1.63476
0.910251
0.756563
1.35522
2.08663
2.61326
3.01067
3.22832
3.2762
3.28442
3.0933
3.17545
3.0369
2.99383
3.00147
2.97728
2.89822
2.67694
2.42067
1.93299
1.35342
0.73155
0.589843
1.1599
1.67544
2.01079
2.37452
2.51464
2.50812
2.49525
2.54607
2.41088
2.40214
2.33326
2.28635
2.29133
2.21265
2.13263
1.83392
1.55348
1.08779
0.517743
0.439336
0.845385
1.22704
1.44749
1.69724
1.71817
1.86534
1.81654
1.73368
1.71562
1.76057
1.62057
1.61824
1.64315
1.59388
1.41649
1.33101
1.08206
0.747587
0.423408
0.246416
0.49736
0.727597
0.850025
1.01424
1.0467
1.10813
1.09128
0.995448
1.0416
1.00769
0.941733
0.942256
0.969238
1.00847
0.858205
0.803518
0.613982