/*--------------------------------*- C++ -*----------------------------------*\
| =========                 |                                                 |
| \\      /  F ield         | OpenFOAM: The Open Source CFD Toolbox           |
|  \\    /   O peration     | Version:  2212                                  |
|   \\  /    A nd           | Website:  www.openfoam.com                      |
|    \\/     M anipulation  |                                                 |
\*---------------------------------------------------------------------------*/
FoamFile
{
    version     2.0;
    format      ascii;
    arch        "LSB;label=32;scalar=64";
    class       volScalarField;
    location    "0";
    object      relativeErrorField;
}
// * * * * * * * * * * * * * * * * * * * * * * * * * * * * * * * * * * * * * //

dimensions      [0 0 0 1 0 0 0];

internalField   nonuniform List<scalar> 
3200
(
0.0109463
0.00437478
0.00100556
0.00517378
0.00737694
0.00830987
0.00893686
0.00898397
0.00861363
0.00848835
0.00774295
0.00769531
0.00734361
0.00688842
0.00643134
0.00548276
0.00384321
0.00052876
0.0047035
0.0105848
0.00904075
0.00353725
0.00124756
0.00479662
0.00667444
0.00757244
0.00788555
0.00807998
0.00761889
0.00718968
0.00698313
0.00685155
0.0061889
0.00592822
0.00558625
0.00499481
0.00319913
5.9136e-05
0.0043644
0.00932507
0.00717522
0.00292134
0.00143151
0.00408956
0.00569365
0.00650246
0.00690351
0.00689744
0.00668507
0.00627599
0.00582498
0.00570102
0.00546859
0.00515491
0.00493288
0.00406664
0.00266537
0.000106715
0.00384995
0.0080398
0.00594546
0.00246568
0.00122364
0.00349212
0.00480311
0.00554085
0.00588467
0.00552387
0.00564781
0.00518729
0.00495213
0.0047222
0.00447537
0.00415346
0.00366693
0.00328467
0.00212243
5.25847e-05
0.00330075
0.00655974
0.00449416
0.00169718
0.00100613
0.00276309
0.00409588
0.0043758
0.00465867
0.00453275
0.00453218
0.00420582
0.00404134
0.00365283
0.00330992
0.00346151
0.00288417
0.00253689
0.00175561
0.00016043
0.00261855
0.0052794
0.00320812
0.00116865
0.000772823
0.00216474
0.00312966
0.00317385
0.00346581
0.00356201
0.00318743
0.00293517
0.00288738
0.00288432
0.00272223
0.00236234
0.00217996
0.00194893
0.00106448
6.64434e-06
0.00204068
0.00377581
0.00209402
0.000735335
0.000416822
0.00143869
0.00178956
0.00199652
0.00217341
0.00181082
0.00195033
0.00195311
0.00196184
0.00155952
0.00157854
0.00149338
0.0013444
0.00119851
0.00054127
7.5924e-05
0.00133069
0.00210452
0.000505059
0.000398919
6.89917e-05
0.000361714
0.000440673
0.000836527
0.000523817
0.000419218
0.000678716
0.000594194
0.000318094
0.000555844
0.00052396
0.000539017
0.000519622
0.000308265
0.000144226
4.05847e-06
0.000618099
0.000767529
0.0106267
0.0044676
0.00107924
0.00472826
0.00694505
0.0078929
0.00832411
0.00810396
0.00742401
0.00718206
0.00666979
0.00649711
0.00613609
0.0060206
0.00595681
0.00481899
0.00321266
0.000158867
0.00485806
0.0105289
0.0090285
0.00351419
0.00111128
0.00437029
0.006027
0.00715644
0.00719122
0.00715868
0.0067792
0.00619159
0.00592351
0.0053479
0.00533841
0.00516201
0.00483773
0.00423805
0.00249465
2.18225e-05
0.0045205
0.00926415
0.00734362
0.00272495
0.000892845
0.00392535
0.00548123
0.00621798
0.00641687
0.00600004
0.00586637
0.00544093
0.00502885
0.00491218
0.00453926
0.00431519
0.00411744
0.00358086
0.0023018
0.000373431
0.00406152
0.00798422
0.00581926
0.00238102
0.00111582
0.00330002
0.00458629
0.00530368
0.00517953
0.00534253
0.00503039
0.00439291
0.00440347
0.00399754
0.00350338
0.00365268
0.00332911
0.0027935
0.00167043
0.000146934
0.0033067
0.00671883
0.00442776
0.00165745
0.000632553
0.00249353
0.00353678
0.00408053
0.0043103
0.00426692
0.0041177
0.0034402
0.00345238
0.00298632
0.00296035
0.00303671
0.00275317
0.00224886
0.00149687
0.000210865
0.00275736
0.00527735
0.00323572
0.00109506
0.00094363
0.00177281
0.00276098
0.00326164
0.00323942
0.00314858
0.00280516
0.00272359
0.00247234
0.00232538
0.00230178
0.00181926
0.0018533
0.00176254
0.000912244
0.000231544
0.0017083
0.00390384
0.00194117
0.000659048
0.000198367
0.00125519
0.00180949
0.00191725
0.00178561
0.00205329
0.00154473
0.00179551
0.00141253
0.0012527
0.00141976
0.00119106
0.0011256
0.00111442
0.000722638
0.000184899
0.00122368
0.00241687
0.000670406
0.000380495
6.86371e-05
0.000683711
0.00073784
0.000593208
0.000690421
0.000653268
0.000568704
0.00029482
0.000513479
0.000497183
0.000476541
0.000756017
0.000638551
0.000346149
0.000404999
0.000103587
0.000209969
0.000741655
0.010919
0.00438436
0.000825388
0.00422261
0.00625642
0.00695259
0.00686886
0.00672662
0.0059304
0.00507006
0.00480996
0.0043697
0.00443769
0.00447143
0.00433239
0.00380473
0.00263252
0.000645446
0.00522219
0.0107996
0.00903127
0.00386773
0.000799107
0.00405077
0.00554166
0.00646749
0.00601272
0.00598398
0.00548107
0.00454025
0.00442537
0.00370093
0.00378053
0.00393537
0.00371627
0.00332525
0.00213859
0.000300976
0.00482145
0.00941944
0.0073599
0.00289885
0.000719118
0.00351644
0.00489362
0.00575323
0.00553721
0.00503817
0.00472055
0.00383419
0.00370478
0.00325895
0.00336992
0.00341346
0.00321237
0.0027324
0.00164626
0.000460585
0.00427008
0.00813728
0.00574487
0.00255095
0.000813736
0.00283389
0.00429695
0.00475796
0.00464714
0.00439324
0.00392157
0.00354706
0.00311369
0.00280891
0.00252656
0.00260221
0.00241722
0.00223268
0.00130004
0.000664467
0.00361224
0.00713828
0.00462317
0.00185774
0.00055993
0.0026018
0.00339294
0.00372974
0.00382546
0.00374779
0.0033075
0.00261595
0.00237973
0.00194234
0.00204284
0.00213134
0.00220567
0.00178924
0.00107828
0.000441991
0.00294159
0.0054529
0.00322935
0.00157021
0.00031714
0.00155091
0.00263318
0.00281866
0.00317273
0.00256662
0.00231712
0.00208931
0.00142272
0.00170629
0.00147141
0.00152165
0.00163878
0.0013483
0.000598299
0.000502713
0.00206966
0.00386715
0.00212893
0.00090961
0.000475396
0.00109352
0.00139227
0.00153496
0.00167252
0.00138192
0.00138171
0.00111758
0.00113251
0.000723372
0.000976795
0.0008675
0.00104644
0.000659456
0.000362414
0.00041495
0.0012738
0.00234634
0.000737963
0.000308222
1.07391e-05
0.000527427
0.000485199
0.000593697
0.000594143
0.000717593
0.000581837
0.000309919
0.000436613
0.000371031
0.000474776
0.000207693
0.000360769
0.000273761
4.79634e-05
0.000330128
0.000546947
0.000777977
0.0109999
0.00533899
0.000251239
0.00321273
0.00509102
0.00562499
0.00548122
0.00480135
0.00409677
0.00311096
0.00233093
0.00208722
0.00233444
0.00252749
0.00276683
0.00252292
0.00147501
0.0014758
0.00582741
0.0112237
0.0094005
0.00449524
0.000223143
0.00303944
0.00490467
0.0050951
0.00488777
0.00446109
0.00352542
0.00272232
0.00237478
0.00196033
0.00204722
0.00217056
0.00248314
0.00202356
0.00101192
0.00132308
0.00544043
0.0103564
0.00773737
0.00366284
0.000313956
0.00265569
0.00423215
0.0043339
0.0044393
0.00380747
0.00322521
0.00241292
0.00195644
0.00166067
0.00162825
0.001858
0.00202703
0.00177054
0.00094539
0.00134405
0.00469586
0.00847037
0.00600379
0.00293621
0.000334838
0.002331
0.0036032
0.0039377
0.00371979
0.00325334
0.00267358
0.00175176
0.00163392
0.00147685
0.00140903
0.00140778
0.00160581
0.0015704
0.000602635
0.00131341
0.00420882
0.00714678
0.0046659
0.00209366
0.00025275
0.00208906
0.0029057
0.00309037
0.00292575
0.00243833
0.00206362
0.00166097
0.00123664
0.00124505
0.00120183
0.00122962
0.00133717
0.00118232
0.000494231
0.00110273
0.00309885
0.00539939
0.00330766
0.00160559
0.000372125
0.0016585
0.00228939
0.00223568
0.00216401
0.00203245
0.0016153
0.00129788
0.000942867
0.000961888
0.000765141
0.000764781
0.00101048
0.000712756
0.000136222
0.000772871
0.00263785
0.00414162
0.00220731
0.000866075
3.95511e-05
0.000797978
0.00152765
0.00153502
0.00164154
0.00134475
0.000827574
0.000564189
0.000754887
0.000563804
0.000304899
0.000572344
0.000655626
0.000589143
0.000418876
0.000427532
0.00154962
0.00256562
0.000720859
0.000296582
5.29537e-05
0.000473367
0.000488537
0.000601339
0.000617942
0.000549358
0.000401854
0.00040606
0.000379796
0.0003338
0.000105177
3.83439e-05
0.000288455
0.000277696
2.55286e-05
4.37821e-06
0.000458958
0.000789795
0.0117744
0.00626956
0.00111385
0.00218663
0.00390032
0.00418471
0.00377086
0.00285321
0.00173428
0.000646764
8.53476e-05
0.000364849
0.000265796
0.000559102
0.000940501
0.000901135
0.000158468
0.00269155
0.00697541
0.0118113
0.00994936
0.0050907
0.000684133
0.00191265
0.00336034
0.00356607
0.00353656
0.00272192
0.0017293
0.000826933
5.91863e-05
0.000201053
4.47337e-05
0.000344478
0.00077002
0.000706966
0.000277846
0.0027095
0.00624366
0.010641
0.00812112
0.00445405
0.000489955
0.00184167
0.00314183
0.003482
0.00315675
0.00233282
0.00157503
0.000739162
2.42406e-05
0.000431081
0.000233174
0.000313322
0.000650217
0.000587846
0.000289892
0.00240157
0.00560881
0.00907229
0.00662655
0.00322534
0.000262042
0.00164805
0.00281084
0.00324164
0.00264394
0.00210704
0.00138592
0.000645408
6.7445e-05
0.000265423
0.000107508
0.000174803
0.000529291
0.000422506
0.000249625
0.00200303
0.00463009
0.00775213
0.00501156
0.00249676
0.000120889
0.00168139
0.00225684
0.00219555
0.00195553
0.00164734
0.00118616
0.000396344
3.3225e-05
0.000116513
0.000134981
7.72812e-05
0.000222967
0.000225905
0.000456798
0.00161856
0.00386212
0.00610178
0.00335603
0.00173119
0.000110451
0.00108207
0.0016882
0.00160617
0.00173141
0.00128637
0.000787462
0.000572233
0.000129641
8.98396e-07
0.00022801
0.000161516
0.000345645
0.000465775
0.000203959
0.00136172
0.0027192
0.00457394
0.00220952
0.00102137
0.000104494
0.000565813
0.000748094
0.00108615
0.00106356
0.000830679
0.000422165
0.000228147
6.70384e-05
7.01532e-05
0.00016497
6.97496e-05
0.000118841
0.000195966
0.000224346
0.000700547
0.00176766
0.002608
0.000856932
0.000338771
6.81937e-06
0.000346718
0.00033797
0.000451637
0.000462128
5.56157e-05
7.42662e-05
6.60458e-05
0.000294225
0.000193833
0.000160592
0.000300018
0.000153797
1.81803e-05
0.000106953
0.000180485
0.000546871
0.00114527
0.0126413
0.00719189
0.00242915
0.00050737
0.00244113
0.00262027
0.0020465
0.000826776
0.000241845
0.00162113
0.0024611
0.00273851
0.00239209
0.00166643
0.00100875
0.00076412
0.00170125
0.00415863
0.00829605
0.0130586
0.0107525
0.00594325
0.00183742
0.000868869
0.0021374
0.00243287
0.00190673
0.000979047
0.000171744
0.00152887
0.00240256
0.00245516
0.00217053
0.00127147
0.000564554
0.000793706
0.00162999
0.003898
0.00747815
0.0113953
0.00885762
0.00506286
0.00134107
0.000852236
0.00190671
0.00217157
0.0014533
0.000991483
0.000258915
0.00091303
0.00176874
0.0019173
0.00190192
0.00153501
0.000856952
0.000690267
0.00152459
0.0034149
0.00667547
0.00991754
0.00721574
0.00390995
0.00130833
0.00100862
0.00164267
0.00202983
0.00155253
0.000810847
0.000114326
0.00103512
0.00131382
0.00186012
0.00144693
0.0012324
0.000841469
0.000821578
0.00100828
0.0027081
0.0054031
0.00819938
0.00537928
0.00339642
0.000688899
0.000760991
0.00141555
0.0015534
0.00132041
0.000779291
1.93228e-05
0.000649986
0.00102018
0.00117836
0.00120167
0.000938321
0.000552668
0.00050137
0.00099376
0.00226155
0.00448063
0.00642676
0.00391008
0.00198944
0.000446958
0.000458232
0.000938886
0.00125583
0.00100649
0.000533751
0.000123717
0.000596214
0.000917601
0.000918324
0.0011085
0.000746743
0.000418872
0.000661714
0.000819265
0.00158225
0.00325102
0.00497876
0.00247907
0.00140043
0.000376393
0.000508187
0.000620233
0.000590691
0.000761809
0.000354433
3.87992e-05
0.000436312
0.000536734
0.000598647
0.000607966
0.000346579
0.000255321
0.000449235
0.000667952
0.00120854
0.00175991
0.00288415
0.000758437
0.000547241
7.29475e-05
4.13704e-06
0.000177361
0.00038215
2.60064e-05
0.000241008
4.54922e-05
0.000124491
0.000100377
0.000237279
0.000171622
3.54772e-05
0.000120503
0.000255763
0.000183274
0.000469199
0.00054759
0.000924306
0.0133744
0.00834987
0.00387956
0.000786639
0.000795826
0.00101178
0.000269811
0.000986788
0.00225956
0.00377911
0.00491277
0.00504176
0.00441048
0.00352353
0.00274841
0.00252283
0.00331763
0.00544241
0.00926699
0.0139
0.011257
0.00695103
0.0030449
0.000482424
0.000683161
0.00105715
0.000472291
0.000479747
0.00184948
0.0032621
0.00394412
0.00446049
0.00395257
0.00306608
0.00246181
0.00240248
0.00310515
0.00513973
0.00841131
0.0123078
0.00930457
0.00598882
0.00247118
0.000187009
0.00104626
0.000859073
0.000606048
0.000365622
0.00163213
0.00275243
0.00342133
0.00390623
0.00326399
0.00265378
0.00190829
0.00204118
0.00275557
0.00449426
0.00726428
0.010471
0.00784795
0.00473173
0.00164715
0.000192764
0.000770672
0.00100032
0.000565671
0.000518556
0.00129113
0.00233744
0.00293208
0.00333302
0.00278642
0.00263597
0.00157249
0.00197709
0.00222807
0.00404376
0.00619973
0.00887889
0.00583836
0.00372851
0.00149348
1.1978e-05
0.000893936
0.000739879
0.0003626
0.000193605
0.00125045
0.00189512
0.00247267
0.00260049
0.00242573
0.00191744
0.00151091
0.00170613
0.00167696
0.00331342
0.00506497
0.0067694
0.00425953
0.0024154
0.000989109
0.000245071
0.000377289
0.000680331
0.00041845
0.000132053
0.000674538
0.00114998
0.00134136
0.00171787
0.00155834
0.0012149
0.00107463
0.000970654
0.00127885
0.00198769
0.00335253
0.0049037
0.00247173
0.0014645
0.000664523
3.24873e-05
0.000313993
0.000449513
0.000262044
0.000120353
0.000481325
0.000665914
0.00108865
0.000872008
0.00104314
0.00106833
0.000734322
0.000687183
0.000802534
0.00139025
0.00238018
0.00332017
0.000936311
0.000606339
6.27183e-05
6.9744e-05
0.000158147
6.79306e-05
9.52757e-05
4.76554e-05
0.000151988
0.000399726
0.000499448
0.00041194
0.000333265
0.000408311
0.000287132
0.000119211
0.00027111
0.000373052
0.000941661
0.00113798
0.0139684
0.00914068
0.00499923
0.00204094
0.000439432
0.000605673
0.00139362
0.00265269
0.00411348
0.00571126
0.0066213
0.00684772
0.00635492
0.00526181
0.00434313
0.00403639
0.00477201
0.00691486
0.0104808
0.0147874
0.0119851
0.00788614
0.00402198
0.00152086
0.000528212
0.00019773
0.000893311
0.00188429
0.00344173
0.00533004
0.00576948
0.00607509
0.0057393
0.00484789
0.00392371
0.00334952
0.00417438
0.00642712
0.00939359
0.0131488
0.0101026
0.00657975
0.00340198
0.00101049
0.000147596
6.04808e-05
0.000575794
0.00164813
0.0029855
0.00422559
0.00507704
0.0051251
0.00460157
0.00402931
0.00332208
0.00313655
0.0037263
0.00553135
0.00830187
0.0109896
0.00774358
0.00524763
0.00268761
0.000937919
3.09247e-05
7.76918e-05
0.000349275
0.001443
0.0023708
0.00346632
0.00403471
0.00430427
0.00384276
0.00348087
0.00291414
0.00260359
0.00327589
0.00461126
0.0069696
0.00937359
0.00636357
0.00400925
0.00217189
0.000824635
0.000171444
0.000265329
0.000265634
0.00100218
0.00181749
0.0027829
0.00338061
0.0032474
0.00318139
0.00277571
0.00251337
0.00204112
0.00275566
0.00365428
0.00554538
0.0074717
0.00437217
0.00300251
0.00126246
0.000481958
0.000126138
0.000326947
0.000173228
0.000832727
0.00139453
0.00201053
0.00227454
0.00251157
0.00246906
0.00197037
0.00170832
0.00165845
0.00200178
0.00271148
0.00396521
0.00544952
0.00276211
0.00180927
0.000695836
0.000382352
0.000253436
3.28097e-05
0.000258279
0.000321349
0.000912545
0.00135747
0.00149323
0.0015166
0.00138802
0.00121614
0.00114054
0.000779963
0.00121048
0.00162625
0.00248559
0.00351196
0.000835193
0.000574246
0.000453404
0.000317686
0.000105686
5.06626e-05
4.5624e-05
0.000447558
0.000305914
0.000405989
0.000593537
0.000510119
0.000421648
0.000464801
0.000243698
0.00050084
0.000535616
0.000724971
0.000861672
0.00123682
0.0148045
0.0101072
0.00588305
0.00309407
0.00155721
0.00148549
0.00229155
0.00362142
0.00548766
0.00710418
0.0081011
0.0082858
0.00799026
0.00667523
0.00554415
0.00534681
0.005795
0.00803994
0.0112734
0.0154734
0.0127395
0.00860245
0.00489767
0.00251358
0.00142235
0.00115566
0.00197127
0.00323603
0.00471847
0.00607262
0.00712871
0.00746861
0.00671122
0.00582683
0.00510445
0.00467802
0.00538024
0.00699341
0.0102601
0.0135461
0.0103784
0.00714299
0.00408025
0.00218452
0.000737075
0.000859887
0.00169045
0.00251857
0.00393217
0.00532072
0.00605153
0.00628609
0.00599445
0.00515909
0.00435634
0.00404087
0.00463094
0.00589663
0.00882658
0.0118669
0.00850647
0.00563906
0.00331433
0.00139677
0.000636959
0.000465107
0.00137516
0.00209442
0.00330722
0.00434584
0.00510933
0.00533202
0.00496153
0.00421888
0.00358073
0.00326485
0.00388654
0.00501285
0.00719473
0.00976411
0.00652443
0.00458558
0.00245306
0.000897872
0.000651301
0.000232872
0.00093806
0.00178401
0.00266537
0.00329876
0.00390737
0.00399428
0.00414072
0.00324437
0.00274614
0.00274814
0.00305768
0.00426044
0.00584368
0.00744769
0.00470216
0.0031882
0.0017568
0.00112182
0.000478221
0.000137067
0.000601318
0.00103329
0.00189436
0.00256347
0.00261134
0.00304198
0.00261595
0.00223093
0.00213496
0.00188312
0.00230011
0.00300564
0.00418144
0.00569693
0.00301772
0.0019081
0.0014341
0.000540157
8.06688e-05
4.21723e-05
0.00052108
0.000686684
0.000892911
0.00124452
0.00145767
0.00163964
0.00153052
0.00155561
0.0011393
0.00126239
0.00146826
0.00179314
0.00288744
0.00366756
0.000817075
0.000717136
0.000491422
0.000182756
1.14853e-05
5.57847e-05
3.97997e-05
0.00010857
0.000332607
0.000530534
0.000446029
0.000641296
0.000614438
0.000464571
0.000257188
8.74989e-05
0.000582856
0.000584405
0.000842526
0.0010221
0.0150798
0.0106857
0.00679611
0.00377789
0.00263663
0.00226232
0.00308332
0.00455741
0.00624305
0.00790585
0.00893919
0.00915043
0.00830022
0.00725097
0.0061516
0.00592697
0.00645188
0.00847293
0.0117113
0.0157795
0.0127537
0.00899814
0.00542415
0.00321934
0.0019551
0.00181746
0.00245802
0.00385493
0.00543543
0.00699839
0.00771794
0.00813728
0.00744759
0.00641053
0.00560613
0.00523232
0.00581156
0.00755594
0.0105871
0.0136792
0.0106382
0.00761078
0.00438959
0.00259806
0.00146311
0.00130104
0.00203598
0.00323193
0.00463781
0.00589208
0.00672533
0.00696655
0.00634442
0.00554413
0.00486348
0.00454642
0.0051088
0.00656789
0.00898543
0.0117033
0.00861652
0.00617556
0.00380111
0.00190143
0.00107761
0.000983911
0.00165583
0.00268754
0.00395392
0.00470507
0.00546853
0.00574419
0.00548558
0.0046703
0.00402443
0.00369146
0.00406746
0.00552085
0.00755459
0.00997815
0.00671231
0.00489697
0.00296047
0.00159805
0.000847461
0.00068077
0.00117281
0.00182103
0.00289977
0.00393127
0.00445692
0.00447448
0.00406777
0.00390028
0.00333325
0.00298976
0.00353368
0.00445428
0.00596605
0.00780771
0.00491864
0.00352969
0.00198185
0.00108347
0.000686616
0.000782547
0.000656586
0.00141803
0.00194356
0.00297691
0.00320185
0.00320238
0.00311313
0.00272106
0.00217991
0.00223735
0.00259748
0.00321932
0.00431244
0.00567616
0.00279087
0.00190476
0.00135537
0.000711272
0.000483299
0.000492313
0.000433523
0.000876929
0.00104658
0.00171458
0.00186154
0.00213875
0.00205495
0.00168522
0.00149439
0.00148459
0.00164328
0.0018103
0.00279783
0.0034975
0.00103233
0.000677913
0.000538235
0.000266685
8.19301e-05
0.000212591
0.000391664
0.000383207
0.000416575
0.000450932
0.000862622
0.000462008
0.000716368
0.000817808
0.000475823
0.000612246
0.000587322
0.000833203
0.00105307
0.00136664
0.0149808
0.0105883
0.00669943
0.00439018
0.00281993
0.0026577
0.00332328
0.00449299
0.00639464
0.00807512
0.00915501
0.00927331
0.00855251
0.00741466
0.00650646
0.00607747
0.00674627
0.00868271
0.0117259
0.0153659
0.0128946
0.00918436
0.00578199
0.00349347
0.00244543
0.0021685
0.00269213
0.00383854
0.00563751
0.00701258
0.00797477
0.0080295
0.00770717
0.00673274
0.00577121
0.00554729
0.00591482
0.00769261
0.0107368
0.0139298
0.0107371
0.00754195
0.00484923
0.00267066
0.00197002
0.00165954
0.00219838
0.00325327
0.00461686
0.00609046
0.00665656
0.00704279
0.00643512
0.00570536
0.0050055
0.00457829
0.0052712
0.00675304
0.00903701
0.0115536
0.00883521
0.00623902
0.00384237
0.00228464
0.00140745
0.00117152
0.00192057
0.00293652
0.00376218
0.00514195
0.00562689
0.00599079
0.00549806
0.00474465
0.0043041
0.00394746
0.00458058
0.00571092
0.00789075
0.00972028
0.00660348
0.00462091
0.0029482
0.00167266
0.000969526
0.00106201
0.00123435
0.00210668
0.00314576
0.00396412
0.00450209
0.0045985
0.00427609
0.00390664
0.00327503
0.00318434
0.00349231
0.00459837
0.00601565
0.00777065
0.00494692
0.00359746
0.00211026
0.00119144
0.000868117
0.000740606
0.000893409
0.00182034
0.00212655
0.00255256
0.00336377
0.00347211
0.00334506
0.00271315
0.00232961
0.00239306
0.00277048
0.00324538
0.00457403
0.00549789
0.0030384
0.00187507
0.00115575
0.000535372
0.000179372
0.000365976
0.000709991
0.00100288
0.0011532
0.00175178
0.00185481
0.00223073
0.00211027
0.00159736
0.00160382
0.00146959
0.00186671
0.0022345
0.00258821
0.00354265
0.00106883
0.000940263
0.000138329
0.000131854
0.000102656
3.79542e-05
0.000272624
0.000192071
0.000435783
0.000708146
0.000665921
0.000789623
0.000719029
0.000552291
0.000274068
0.000331415
0.000710483
0.000524866
0.000979793
0.00124932
0.0142435
0.0104636
0.00660089
0.00413521
0.00279521
0.00237252
0.00320515
0.00452956
0.0058686
0.00756584
0.00843167
0.00853282
0.00783258
0.00697283
0.00611442
0.00596773
0.00619629
0.00838831
0.0112065
0.0147157
0.0124865
0.0089771
0.00569567
0.00343066
0.00239144
0.00189873
0.00266538
0.00370372
0.00520384
0.00649054
0.00718779
0.00747867
0.00704916
0.00625012
0.00563286
0.00540019
0.00576232
0.00732595
0.0102113
0.0129687
0.0104727
0.00745873
0.00437971
0.00284117
0.0017703
0.00152291
0.00205966
0.00292483
0.00455208
0.00536032
0.00606223
0.00637636
0.00594161
0.00533949
0.00476487
0.00452656
0.00527285
0.00648391
0.00858971
0.0111827
0.00823521
0.00606562
0.00345594
0.00212606
0.00147255
0.00124683
0.00170717
0.00246182
0.00350305
0.00447743
0.0051825
0.00541248
0.00503871
0.0043173
0.00394519
0.00382564
0.00419978
0.00559611
0.00722085
0.00922422
0.00650354
0.00456304
0.00301469
0.00143707
0.000912838
0.00102742
0.0012684
0.00189664
0.00281749
0.00367308
0.003996
0.00431051
0.00381818
0.0035173
0.0031677
0.00301264
0.00314518
0.00418232
0.0059444
0.00743956
0.0046527
0.00329341
0.00208131
0.0011725
0.000716004
0.000601543
0.000873269
0.00141044
0.00182645
0.0024441
0.0029503
0.00295079
0.00268631
0.00262642
0.00211415
0.00206924
0.00254795
0.00326004
0.00424256
0.00525369
0.0028276
0.002085
0.0013273
0.000657308
0.000374268
0.000325925
0.000476058
0.000968519
0.000994337
0.00178138
0.00184875
0.00171483
0.00186115
0.00157946
0.00137045
0.00134839
0.0013498
0.00194889
0.00266272
0.00336061
0.000769716
0.000810204
0.000478423
0.000240135
0.000461868
0.00017879
9.33673e-05
0.00029969
0.000534631
0.000492339
0.000693128
0.000592095
0.000566946
0.000585329
0.000584064
0.000429155
0.000265524
0.000569647
0.000843333
0.00127488
0.0135271
0.00957932
0.00609641
0.00334412
0.00216606
0.00185959
0.00236897
0.00351174
0.00490888
0.00612271
0.006819
0.0071059
0.00675702
0.00604302
0.00509588
0.00501409
0.00563678
0.00745569
0.0104025
0.0136144
0.0114794
0.00810145
0.00510877
0.0027453
0.0015573
0.00129025
0.00192695
0.00299072
0.004213
0.0054094
0.00627539
0.00611939
0.005948
0.00530819
0.00433507
0.00425324
0.00519731
0.00658655
0.00932788
0.012074
0.00960325
0.0066602
0.00424217
0.002037
0.00123724
0.0010386
0.00164272
0.00258265
0.00354293
0.00462348
0.00528866
0.00537168
0.00499263
0.00451837
0.00395573
0.00377438
0.00467329
0.00594967
0.00805922
0.0105041
0.00786831
0.00550373
0.00333786
0.00175268
0.00102367
0.000600932
0.00107753
0.00170418
0.00293179
0.00364745
0.00441946
0.00457266
0.00419933
0.00377106
0.00325709
0.00324658
0.00379212
0.00483706
0.00661082
0.00856787
0.0060488
0.00442946
0.00264442
0.00139214
0.000660805
0.000560968
0.000647741
0.00140098
0.00235918
0.00275666
0.00340941
0.00321358
0.00331675
0.00311344
0.00254549
0.00270273
0.00285918
0.00397337
0.00532509
0.00691643
0.00436048
0.00298368
0.00178509
0.000892858
0.000264884
0.000335311
0.000793973
0.00111823
0.00169136
0.0020425
0.00240539
0.00247189
0.00257893
0.00191959
0.00198278
0.0021428
0.00207591
0.00276752
0.00406327
0.00517482
0.00272834
0.0017702
0.0011744
0.0005545
0.000251624
0.000204599
0.000390913
0.000567369
0.00092505
0.00126129
0.00148032
0.00169898
0.00114966
0.00136566
0.0010993
0.00116686
0.00143682
0.00167879
0.00245516
0.00298284
0.000869183
0.000695589
4.43595e-05
5.3937e-05
6.46352e-05
1.32785e-05
0.000121381
0.000297575
0.000261878
0.000338548
0.000481071
0.000678428
0.000418674
0.000482773
0.000336393
0.000534647
0.000425695
0.000603021
0.000677269
0.000847927
0.0122065
0.00859116
0.0049293
0.00249125
0.00108543
0.000570869
0.000978709
0.00193644
0.00314715
0.00418885
0.00501236
0.00514571
0.00475499
0.00423648
0.00368007
0.00358214
0.00439422
0.0061024
0.00888895
0.0121229
0.0102627
0.00710657
0.00425991
0.00183654
0.000814944
0.000334322
0.000650415
0.00159227
0.00262668
0.00348627
0.00434055
0.00467961
0.00414309
0.00351438
0.00314218
0.00309538
0.00393434
0.00546068
0.00789174
0.0108716
0.00858507
0.00596914
0.00325913
0.00136461
0.000322785
0.00014157
0.0002947
0.00125228
0.00219202
0.00304656
0.00356557
0.00388815
0.00368173
0.00316141
0.00290138
0.00265445
0.00326791
0.00485722
0.00681674
0.00934533
0.00700159
0.00479241
0.0026598
0.000960946
0.000234949
0.000316787
0.000245975
0.000923427
0.00196675
0.00255138
0.00311495
0.00294729
0.00292264
0.00277119
0.00244425
0.0023712
0.0023658
0.00390574
0.00596982
0.00784062
0.00505352
0.00374268
0.00163814
0.000645981
0.000117728
0.000276587
7.96721e-05
0.000611099
0.00155622
0.00201849
0.00219187
0.00230331
0.00240236
0.00205107
0.00168781
0.00155436
0.00220702
0.00317934
0.00463231
0.00617442
0.003855
0.00274001
0.00154657
0.000489359
6.6706e-05
0.000201933
0.00016942
0.000483591
0.00105712
0.00137723
0.00175275
0.00172557
0.00169287
0.00131991
0.0015157
0.00150332
0.0015221
0.00251449
0.00307631
0.00448579
0.00239854
0.00163651
0.000851263
0.000149715
4.68832e-05
9.52003e-05
4.23215e-05
1.50673e-05
0.000510581
0.000999916
0.00112437
0.000955767
0.000916515
0.000798245
0.000782609
0.000989094
0.00113969
0.0011026
0.00179947
0.00284604
0.000812288
0.000643892
0.000339742
8.13592e-05
0.000122292
0.000100307
0.000135197
0.000165288
0.000106878
0.000357434
0.000357711
0.000529319
0.000532635
0.000328845
0.000168666
0.000358645
0.000458704
0.00051136
0.000717478
0.000845774
0.0105875
0.00682136
0.00331728
0.000961217
0.000495974
0.000999061
0.000712571
2.25173e-05
0.00104795
0.0019515
0.00250865
0.00258073
0.00237099
0.00182159
0.00127001
0.00161118
0.00244977
0.0042027
0.00695435
0.0101663
0.00878895
0.00563312
0.00253964
0.000381846
0.000500928
0.00109512
0.000919829
0.000102823
0.000536962
0.00137155
0.00203094
0.00207192
0.00198024
0.00153975
0.00134761
0.00156014
0.00205847
0.00374313
0.00640821
0.00887812
0.00704467
0.00460047
0.00203063
0.000287831
0.000828578
0.00133061
0.00075549
0.000558054
0.000244209
0.00118549
0.00171077
0.00176553
0.00158234
0.00126688
0.00116867
0.00122843
0.00185907
0.00335999
0.00515758
0.00773938
0.0057401
0.00366878
0.00153374
9.11288e-05
0.000733784
0.00124347
0.000898147
0.000425586
0.000215554
0.000688529
0.00140067
0.00154993
0.00142434
0.00112168
0.000835415
0.000834352
0.00136622
0.00249615
0.00434958
0.00644484
0.00424382
0.00267566
0.00118993
0.000283352
0.000947629
0.00105054
0.000992487
0.000198693
0.000410807
0.00079274
0.00114937
0.00116727
0.0010941
0.000751668
0.000590025
0.000783742
0.00103038
0.00217253
0.00357971
0.00512129
0.00313896
0.00188694
0.000865324
1.62184e-05
0.000631402
0.000878836
0.000730104
0.000617279
0.000121513
0.000511979
0.000546024
0.000860097
0.000737783
0.000540735
0.000567357
0.000573778
0.000631989
0.0018083
0.00255782
0.00376633
0.00169427
0.00116968
0.000459602
7.89084e-05
0.000323127
0.000340009
0.000360323
0.000218344
7.99815e-05
0.000234704
0.00059426
0.000462272
0.000554158
0.000614401
0.000279882
0.000367805
0.000498062
0.000806792
0.00159599
0.00220742
0.000610032
0.000273963
0.000127142
6.10971e-05
0.000430045
0.000126741
6.88627e-05
7.91757e-05
0.000149773
0.000112988
0.000341296
9.97539e-05
0.000228037
0.000383793
4.04689e-05
2.58578e-05
0.000124032
0.000286291
0.000664884
0.000729983
0.00820696
0.00460264
0.00133574
0.00117838
0.00246096
0.00306377
0.00288937
0.00234415
0.00184124
0.000834014
0.000351664
0.000624134
0.000566372
0.000995833
0.000997081
0.000984823
0.000205458
0.00189562
0.00459919
0.0079617
0.00683632
0.0037978
0.000861485
0.00118325
0.00254028
0.00327201
0.00296479
0.00249884
0.00172397
0.000992213
0.000447387
0.000326444
0.000633451
0.000908641
0.000858021
0.000930268
0.000111312
0.00165726
0.00409279
0.00682368
0.00554803
0.0029037
0.000357956
0.00125849
0.00247176
0.00275004
0.0029573
0.00227354
0.00165314
0.000798539
0.000646601
0.000302424
0.000683966
0.00110698
0.00100681
0.000688397
0.000161869
0.00142078
0.00368304
0.00570104
0.0044259
0.00227158
0.000115089
0.00119304
0.00206906
0.00263386
0.0023521
0.00190639
0.00134383
0.000990258
0.000543966
0.000306171
0.000716045
0.000431317
0.000746528
0.000694214
2.79622e-05
0.00107661
0.00307
0.00470591
0.00315772
0.00184053
5.34162e-05
0.00121943
0.00195915
0.002008
0.00203255
0.0016858
0.0012786
0.000896049
0.000508059
0.000245332
0.000427083
0.000413371
0.00070184
0.000191559
1.36817e-05
0.000833732
0.00232165
0.00406832
0.00234445
0.00120585
1.37311e-06
0.00101662
0.00149154
0.00157013
0.00129123
0.00145591
0.000944498
0.000335143
0.000424498
0.000215815
0.000372289
0.000557469
0.000395605
0.000518189
0.000156604
0.000820279
0.00194865
0.00286894
0.00141262
0.00088595
9.59539e-06
0.00049274
0.000751036
0.000843547
0.00104796
0.000746846
0.000515242
0.000368669
0.000312231
0.000193798
0.000224922
0.000351334
0.000230614
0.000302116
0.00015788
0.000536707
0.00101306
0.00177907
0.000448337
7.83116e-05
0.000122102
0.000329847
0.000180771
0.000149393
0.000365962
0.000488161
0.000295966
5.04428e-05
0.000194048
6.35608e-05
7.12407e-05
5.89878e-06
3.05427e-05
9.45026e-05
4.76158e-05
0.000112135
0.000430466
0.000551238
0.00570744
0.00220675
0.00108727
0.00348591
0.00499143
0.005611
0.00571589
0.0054415
0.00494723
0.0041838
0.00390931
0.00362654
0.00387652
0.00415599
0.00412592
0.00370273
0.00278282
0.000694119
0.00187145
0.00519181
0.00460889
0.00164235
0.001345
0.00344879
0.00484903
0.00564486
0.00524486
0.0048733
0.00464416
0.00409251
0.00369459
0.00342732
0.0032978
0.00357301
0.00357732
0.00342743
0.00261366
0.000720828
0.0017911
0.00438115
0.00351338
0.0012035