/*--------------------------------*- C++ -*----------------------------------*\
| =========                 |                                                 |
| \\      /  F ield         | OpenFOAM: The Open Source CFD Toolbox           |
|  \\    /   O peration     | Version:  2212                                  |
|   \\  /    A nd           | Website:  www.openfoam.com                      |
|    \\/     M anipulation  |                                                 |
\*---------------------------------------------------------------------------*/
FoamFile
{
    version     2.0;
    format      ascii;
    arch        "LSB;label=32;scalar=64";
    class       volScalarField;
    location    "./ITHACAoutput/true/18.4";
    object      error;
}
// * * * * * * * * * * * * * * * * * * * * * * * * * * * * * * * * * * * * * //

dimensions      [0 0 0 1 0 0 0];

internalField   nonuniform List<scalar> 
3200
(
0.925043
1.48667
1.78623
1.84382
1.67952
1.39155
0.946647
0.481408
0.0609387
-0.332046
-0.511613
-0.611794
-0.63053
-0.57134
-0.459288
-0.391407
-0.373023
-0.509132
-1.00122
-1.60901
0.590911
1.03625
1.41739
1.45678
1.3491
0.970695
0.662042
0.249328
-0.097607
-0.392232
-0.552574
-0.710372
-0.643588
-0.653071
-0.506897
-0.380713
-0.336493
-0.483272
-0.961617
-1.46237
0.323304
0.723298
0.989305
1.13274
0.905978
0.816683
0.43002
0.0788391
-0.118585
-0.342989
-0.568795
-0.531662
-0.63536
-0.592951
-0.457983
-0.385379
-0.401475
-0.539256
-0.856022
-1.33614
0.201355
0.523694
0.7309
0.841489
0.685951
0.505394
0.310959
0.112583
-0.177663
-0.421461
-0.505275
-0.59323
-0.556671
-0.495639
-0.427983
-0.432299
-0.413835
-0.477166
-0.774375
-1.04392
0.0116288
0.256195
0.532197
0.543752
0.540768
0.447927
0.194888
0.0295765
-0.229455
-0.376005
-0.471882
-0.412572
-0.498259
-0.350407
-0.372233
-0.293198
-0.278414
-0.400901
-0.624523
-0.789849
0.0353019
0.252894
0.290101
0.367964
0.302366
0.213762
0.139147
-0.154026
-0.199647
-0.291494
-0.316697
-0.362912
-0.411806
-0.341898
-0.293621
-0.18816
-0.181433
-0.283497
-0.47816
-0.679732
-0.00402399
0.162805
0.253188
0.198274
0.270622
0.110543
0.0612969
-0.075777
-0.126589
-0.133267
-0.253668
-0.19972
-0.1815
-0.183901
-0.137445
-0.129138
-0.170041
-0.154003
-0.275447
-0.369697
-0.00320005
0.02286
0.0850946
0.148803
0.066214
-0.0106152
0.0223122
0.0287943
-0.0529932
-0.0674224
-0.0971475
-0.056541
-0.140224
0.0458586
0.0150411
-0.0128751
0.00881802
-0.027757
-0.107336
-0.0459076
0.741709
1.28788
1.6756
1.69676
1.49002
1.14612
0.706887
0.221835
-0.271183
-0.579714
-0.883359
-0.928746
-1.04074
-0.857329
-0.684139
-0.5444
-0.503081
-0.689681
-1.10832
-1.73364
0.508204
0.962223
1.24043
1.31952
1.20488
0.932647
0.474626
0.135229
-0.268007
-0.715035
-0.834832
-0.952085
-0.910154
-0.875702
-0.709677
-0.542658
-0.603921
-0.755028
-1.13121
-1.61974
0.250545
0.612024
0.895082
0.9217
0.810967
0.639256
0.29315
-0.0825513
-0.449686
-0.633322
-0.863162
-0.936822
-0.814388
-0.731948
-0.587703
-0.549731
-0.473199
-0.631622
-0.935485
-1.38723
0.102235
0.402917
0.656945
0.702244
0.638472
0.414703
0.21171
-0.179299
-0.462185
-0.599143
-0.754795
-0.711267
-0.814942
-0.684229
-0.513806
-0.45901
-0.453842
-0.62426
-0.875486
-1.13111
0.0596816
0.281381
0.44477
0.477637
0.487535
0.255666
0.00962569
-0.137014
-0.334579
-0.470556
-0.547939
-0.634289
-0.704468
-0.538049
-0.468861
-0.383771
-0.405351
-0.457082
-0.668367
-0.901794
0.0300946
0.115197
0.257698
0.313054
0.364293
0.20552
0.0537161
-0.121382
-0.240899
-0.409436
-0.496123
-0.421194
-0.410711
-0.400089
-0.387831
-0.285263
-0.332562
-0.337396
-0.477239
-0.64942
-0.0167542
0.0962069
0.181393
0.0857299
0.109852
0.106765
-0.010352
-0.0787974
-0.203615
-0.180498
-0.296433
-0.299547
-0.271524
-0.262214
-0.179539
-0.246601
-0.199508
-0.169995
-0.275937
-0.330148
-0.0665339
0.0566959
0.0757686
0.0759528
0.011096
-0.00974689
0.0371758
-0.020844
-0.0848692
-0.101335
-0.095734
-0.143327
-0.0644283
-0.0263966
-0.135539
-0.0168411
-0.049433
-0.0903982
-0.186412
-0.141975
0.657695
1.12629
1.4439
1.52851
1.25807
0.853393
0.332659
-0.224577
-0.667343
-1.14916
-1.3482
-1.46574
-1.44034
-1.23017
-1.07979
-0.86154
-0.844065
-0.930387
-1.33911
-1.97383
0.337428
0.786219
1.15124
1.10368
0.896956
0.613295
0.156814
-0.292641
-0.679516
-1.12901
-1.3204
-1.32605
-1.29526
-1.16228
-1.00997
-0.886817
-0.763166
-0.971855
-1.24399
-1.65748
0.158664
0.47637
0.764893
0.894384
0.653739
0.350269
0.0668515
-0.413448
-0.740273
-0.943151
-1.20543
-1.22333
-1.20737
-1.10585
-0.890248
-0.791382
-0.680302
-0.836739
-1.13031
-1.4629
0.00706332
0.313931
0.485046
0.54565
0.427977
0.178064
-0.0985374
-0.314734
-0.607547
-0.823773
-0.97051
-1.04133
-1.00768
-0.888905
-0.822002
-0.692962
-0.65562
-0.718266
-0.953329
-1.23307
-0.0505671
0.192973
0.379238
0.337492
0.259498
0.100998
-0.0245407
-0.304554
-0.529228
-0.725366
-0.834119
-0.823674
-0.868992
-0.829236
-0.6362
-0.510843
-0.490709
-0.607609
-0.882091
-1.00422
-0.0365053
0.127691
0.318482
0.201977
0.114859
0.0414747
-0.0420183
-0.293582
-0.362075
-0.588086
-0.595905
-0.656799
-0.625458
-0.510166
-0.479809
-0.362207
-0.364536
-0.368653
-0.557505
-0.757759
-0.0592401
0.0394393
0.100424
0.135003
0.181802
0.0223011
-0.0793589
-0.141845
-0.229543
-0.339084
-0.376527
-0.395751
-0.433128
-0.320739
-0.250643
-0.2605
-0.239702
-0.276931
-0.284132
-0.444978
-0.025454
0.0766036
-1.72792e-06
0.120922
0.0655861
0.0492364
-0.0503596
-0.0818009
-0.0798188
-0.0905662
-0.150039
-0.153638
-0.0269289
-0.100686
-0.00447796
-0.0525085
-0.0165215
-0.0991054
-0.101968
-0.123368
0.410701
0.847042
1.14252
1.14924
0.878084
0.389672
-0.13362
-0.747622
-1.1812
-1.64465
-1.90894
-2.04727
-2.02827
-1.76752
-1.54286
-1.31276
-1.1449
-1.20706
-1.65697
-2.16914
0.180602
0.52444
0.787168
0.784532
0.640027
0.224591
-0.265146
-0.737283
-1.22989
-1.58689
-1.83949
-1.92199
-1.8356
-1.67508
-1.3757
-1.19223
-1.10339
-1.15218
-1.41405
-1.92079
-0.101558
0.300259
0.471446
0.640709
0.320781
0.0378215
-0.281916
-0.690106
-1.055
-1.37637
-1.55416
-1.66353
-1.62421
-1.41594
-1.29319
-1.08716
-0.948995
-1.04776
-1.35325
-1.67737
-0.206027
0.14592
0.312053
0.324174
0.173359
-0.0139244
-0.360146
-0.554466
-0.920869
-1.17023
-1.41237
-1.37353
-1.35526
-1.24618
-1.14362
-0.980043
-0.825701
-0.848095
-1.14521
-1.33631
-0.224859
0.0416638
0.229395
0.223618
0.0790448
-0.0299533
-0.331377
-0.572184
-0.748695
-0.965421
-1.07625
-1.05037
-1.06848
-1.01805
-0.882192
-0.788194
-0.665436
-0.690157
-0.902133
-1.04989
-0.148308
0.0467677
0.117869
0.133011
0.0712007
-0.0901745
-0.235295
-0.449459
-0.586107
-0.719643
-0.827503
-0.807993
-0.852388
-0.690605
-0.558136
-0.528652
-0.504365
-0.563292
-0.663251
-0.84328
-0.111417
-0.0880937
0.0563764
0.0431413
0.0554342
0.0150236
-0.173722
-0.182294
-0.343579
-0.472536
-0.493509
-0.502429
-0.530821
-0.497279
-0.364349
-0.266439
-0.320957
-0.352048
-0.361095
-0.490807
-0.0670419
-0.00925103
0.0334919
0.093645
0.0446104
-0.121887
-0.0725321
-0.0619526
-0.12981
-0.233735
-0.138281
-0.159737
-0.180285
-0.223709
-0.163205
-0.0923783
-0.0781454
-0.141148
-0.13469
-0.160179
0.104016
0.488973
0.725094
0.709076
0.477601
-0.0181459
-0.508658
-1.23308
-1.7641
-2.1777
-2.57035
-2.6133
-2.58529
-2.349
-1.99576
-1.66153
-1.54952
-1.66693
-1.94254
-2.38291
-0.10951
0.234316
0.507548
0.521241
0.236889
-0.113413
-0.675451
-1.17973
-1.6834
-2.07576
-2.34108
-2.39784
-2.25631
-2.08828
-1.86018
-1.62377
-1.4661
-1.5437
-1.81827
-2.22454
-0.224503
0.0754938
0.248879
0.214346
0.0414465
-0.2381
-0.687495
-1.06669
-1.48256
-1.83179
-2.02657
-2.1302
-2.0553
-1.77799
-1.61801
-1.40951
-1.21713
-1.25363
-1.60907
-1.94849
-0.26389
-0.131105
0.150873
0.186122
-0.0434939
-0.243414
-0.630014
-0.925541
-1.27279
-1.55264
-1.67867
-1.76175
-1.59066
-1.56962
-1.40765
-1.1208
-1.11519
-1.1703
-1.28999
-1.5402
-0.236707
-0.139137
0.00120094
0.00113508
-0.0203511
-0.316543
-0.48244
-0.77152
-0.988572
-1.18919
-1.35597
-1.45305
-1.34469
-1.25881
-1.13839
-1.00051
-0.822404
-0.848323
-1.10177
-1.22095
-0.250386
-0.0797849
-0.0147581
-0.0259187
-0.0476881
-0.23551
-0.403732
-0.566824
-0.769882
-0.941279
-0.978595
-1.03081
-0.968507
-0.92592
-0.754974
-0.703323
-0.63915
-0.691156
-0.69889
-0.832586
-0.0792609
-0.0727769
0.0498383
-0.00579102
-0.00497223
-0.170058
-0.192263
-0.340251
-0.424156
-0.53324
-0.645351
-0.605917
-0.602247
-0.542471
-0.488284
-0.358901
-0.34679
-0.402701
-0.528457
-0.559329
-0.0884226
-0.0265048
-0.0317955
0.0254141
-0.0596024
-0.0175954
-0.08528
-0.105048
-0.168957
-0.271718
-0.195236
-0.174339
-0.133545
-0.110458
-0.193112
-0.100338
-0.147584
-0.135805
-0.170645
-0.0996068
-0.211382
0.0839117
0.491176
0.374195
0.109515
-0.433982
-1.00759
-1.57889
-2.34118
-2.73954
-3.11783
-3.22387
-3.1047
-2.8624
-2.43259
-2.17219
-2.02386
-1.98454
-2.3174
-2.74091
-0.461572
-0.0213638
0.125552
0.143032
-0.165728
-0.509571
-1.07404
-1.53278
-2.03729
-2.54484
-2.74892
-2.9021
-2.83505
-2.4985
-2.18852
-1.98729
-1.79005
-1.84809
-2.07575
-2.50551
-0.478984
-0.198651
-0.0919739
0.00320518
-0.284322
-0.51831
-1.02764
-1.4671
-1.77599
-2.175
-2.45481
-2.53197
-2.47851
-2.30298
-1.94053
-1.752
-1.54274
-1.64253
-1.79914
-2.13953
-0.567867
-0.262038
-0.164383
-0.173383
-0.315929
-0.557009
-0.861859
-1.27065
-1.601
-1.89871
-2.1107
-2.12877
-2.01138
-1.85995
-1.66177
-1.4898
-1.35178
-1.34088
-1.57483
-1.78337
-0.477841
-0.303566
-0.135748
-0.150782
-0.314386
-0.430925
-0.773477
-0.989936
-1.29582
-1.41981
-1.62324
-1.56557
-1.56747
-1.50126
-1.25153
-1.15503
-1.04104
-1.05016
-1.14706
-1.3665
-0.419592
-0.34751
-0.103944
-0.140398
-0.242854
-0.368245
-0.499707
-0.724938
-0.900301
-1.0453
-1.16749
-1.1444
-1.08111
-1.08729
-0.901213
-0.779728
-0.668172
-0.832362
-0.837408
-1.00868
-0.25879
-0.233758
-0.18342
-0.0196948
-0.172787
-0.222258
-0.296931
-0.54502
-0.532893
-0.682291
-0.773718
-0.679231
-0.745005
-0.638908
-0.607796
-0.436001
-0.462962
-0.51131
-0.568321
-0.615235
-0.108686
-0.0776005
-0.0892659
-0.0454304
-0.100613
-0.0615902
-0.100571
-0.15953
-0.18342
-0.170115
-0.287104
-0.15617
-0.21176
-0.182513
-0.212806
-0.185641
-0.20096
-0.148824
-0.150973
-0.212021
-0.587535
-0.324589
-0.0583668
-0.0101376
-0.355042
-0.889538
-1.45653
-2.17392
-2.75276
-3.32095
-3.73449
-3.7877
-3.70781
-3.32513
-2.92746
-2.64947
-2.43461
-2.44234
-2.66402
-3.08392
-0.692628
-0.423786
-0.173995
-0.293363
-0.43097
-0.879466
-1.38091
-2.0252
-2.60534
-2.99016
-3.23853
-3.36466
-3.24576
-3.00382
-2.70537
-2.34664
-2.17133
-2.18519
-2.38579
-2.69524
-0.877189
-0.477576
-0.396349
-0.297569
-0.515775
-0.911379
-1.29278
-1.73345
-2.19609
-2.59754
-2.89229
-2.95147
-2.78697
-2.53029
-2.32906
-2.04905
-1.95389
-1.92165
-2.05789
-2.34693
-0.69996
-0.535548
-0.379143
-0.331591
-0.615493
-0.889063
-1.23114
-1.54879
-1.89113
-2.16707
-2.37427
-2.39374
-2.32857
-2.12634
-1.92738
-1.70462
-1.53663
-1.56245
-1.63758
-1.89922
-0.608501
-0.487287
-0.352
-0.353514
-0.517419
-0.587388
-0.923131
-1.22761
-1.48159
-1.70556
-1.9444
-1.86754
-1.86825
-1.6198
-1.47743
-1.33147
-1.20322
-1.2057
-1.36211
-1.59338
-0.455307
-0.390325
-0.238488
-0.263005
-0.423879
-0.559669
-0.747445
-0.903385
-1.07421
-1.16129
-1.34342
-1.46426
-1.36949
-1.21159
-1.04362
-0.952047
-0.933896
-0.858936
-0.981141
-1.07179
-0.323753
-0.250152
-0.0479536
-0.151356
-0.147358
-0.327671
-0.481415
-0.616403
-0.682418
-0.820222
-0.86186
-0.856677
-0.819109
-0.708906
-0.620978
-0.534457
-0.634831
-0.530617
-0.571899
-0.712526
-0.0945055
0.00893523
-0.00321382
0.0234966
-0.0328046
-0.108512
-0.171276
-0.188211
-0.216985
-0.261106
-0.240886
-0.31825
-0.305866
-0.235264
-0.226896
-0.183667
-0.202302
-0.251827
-0.227161
-0.234955
-0.896564
-0.539314
-0.452082
-0.48346
-0.811609
-1.26597
-1.78614
-2.55527
-3.24308
-3.75621
-4.19234
-4.30958
-4.11953
-3.76745
-3.34022
-2.96901
-2.75338
-2.81626
-2.91253
-3.31322
-1.07269
-0.751607
-0.495595
-0.658776
-0.872019
-1.27219
-1.70444
-2.32441
-2.9339
-3.47896
-3.6123
-3.75635
-3.72312
-3.35865
-2.91933
-2.73524
-2.61064
-2.43228
-2.62959
-2.92747
-1.05089
-0.768
-0.598355
-0.719715
-0.910503
-1.06698
-1.56593
-2.12622
-2.56186
-2.9792
-3.19042
-3.2405
-3.16338
-2.88444
-2.60906
-2.32021
-2.12956
-2.15675
-2.26432
-2.56027
-0.985782
-0.755833
-0.559677
-0.670767
-0.766359
-1.09946
-1.43156
-1.79291
-2.11485
-2.49607
-2.6468
-2.74423
-2.65944
-2.3718
-2.13288
-1.88827
-1.862
-1.84125
-1.90128
-2.17024
-0.789967
-0.638973
-0.503464
-0.527875
-0.627643
-0.843954
-1.13002
-1.47085
-1.77028
-2.00205
-2.09041
-2.20616
-2.07755
-1.97237
-1.64495
-1.53961
-1.40503
-1.43081
-1.50572
-1.76227
-0.568378
-0.44794
-0.464163
-0.432732
-0.480152
-0.648183
-0.719184
-1.01177
-1.23959
-1.41479
-1.4663
-1.5566
-1.39742
-1.31203
-1.27085
-1.16844
-1.10131
-1.08124
-1.06029
-1.16379
-0.380885
-0.31346
-0.199886
-0.277281
-0.316658
-0.440691
-0.458007
-0.640162
-0.747591
-0.767944
-0.970118
-0.935678
-0.90957
-0.743333
-0.785583
-0.676995
-0.681161
-0.720885
-0.706457
-0.817157
-0.145548
-0.0977218
0.00140451
-0.119738
-0.0714422
-0.218452
-0.150842
-0.170512
-0.33923
-0.345266
-0.33943
-0.289015
-0.361045
-0.238715
-0.307615
-0.201087
-0.207948
-0.139583
-0.182541
-0.233842
-1.27572
-0.916102
-0.763168
-0.758474
-1.09198
-1.66197
-2.15606
-2.91816
-3.49923
-4.14634
-4.4754
-4.589
-4.35647
-4.08419
-3.66336
-3.34404
-3.07592
-3.05421
-3.2075
-3.58453
-1.32349
-1.02585
-0.872284
-0.895416
-1.13329
-1.6599
-2.1206
-2.69469
-3.25172
-3.75
-4.05415
-4.10702
-3.95896
-3.61542
-3.33071
-2.97762
-2.77316
-2.71968
-2.91496
-3.19972
-1.2273
-1.00127
-0.843923
-0.959801
-1.12227
-1.37658
-1.9265
-2.37078
-2.86989
-3.22205
-3.49755
-3.52048
-3.40191
-3.07251
-2.91712
-2.59303
-2.4059
-2.39279
-2.55216
-2.81633
-1.07911
-0.897371
-0.864311
-0.871121
-0.969516
-1.20952
-1.57497
-1.95645
-2.43258
-2.7329
-2.92789
-2.9081
-2.82413
-2.66279
-2.34815
-2.17597
-2.01927
-2.05796
-2.08965
-2.26568
-0.968058
-0.880245
-0.728091
-0.675338
-0.834751
-1.06562
-1.38392
-1.57279
-1.96309
-2.08834
-2.29282
-2.35114
-2.25682
-2.05995
-1.85809
-1.69833
-1.6014
-1.54506
-1.74759
-1.88043
-0.708612
-0.618098
-0.57719
-0.638528
-0.565582
-0.806484
-0.981445
-1.13482
-1.4112
-1.51438
-1.59298
-1.60688
-1.59207
-1.49587
-1.36835
-1.17705
-1.11654
-1.14423
-1.22275
-1.29299
-0.416111
-0.383998
-0.357598
-0.328796
-0.364153
-0.419646
-0.627356
-0.715956
-0.823616
-0.912098
-1.00127
-1.04841
-1.00637
-0.835188
-0.769045
-0.755313
-0.728653
-0.643266
-0.751706
-0.722821
-0.139696
-0.0879253
-0.151216
-0.101349
-0.141612
-0.196463
-0.248262
-0.335641
-0.371437
-0.236716
-0.29617
-0.35365
-0.353314
-0.295867
-0.289761
-0.264781
-0.200055
-0.234875
-0.238117
-0.268508
-1.57196
-1.23681
-1.07717
-1.14945
-1.46021
-1.88
-2.45219
-3.18728
-3.7844
-4.31878
-4.7198
-4.83633
-4.62328
-4.2225
-3.93024
-3.62667
-3.30089
-3.34272
-3.41182
-3.75943
-1.59708
-1.2325
-1.20882
-1.20051
-1.47412
-1.7732
-2.34233
-2.85919
-3.49874
-3.92837
-4.20315
-4.33309
-4.16852
-3.81302
-3.47576
-3.20812
-2.99143
-2.89547
-3.09916
-3.2916
-1.49356
-1.27109
-1.12025
-1.11769
-1.35913
-1.76501
-2.04886
-2.45229
-2.9922
-3.39975
-3.67637
-3.61229
-3.55264
-3.32886
-3.06901
-2.77847
-2.64144
-2.53285
-2.66084
-2.92995
-1.29298
-1.144
-0.867842
-1.04952
-1.23723
-1.40596
-1.81571
-2.15368
-2.51844
-2.80595
-3.02583
-3.1203
-2.94319
-2.81551
-2.58457
-2.23147
-2.10267
-2.13471
-2.27861
-2.43674
-1.08471
-1.02656
-0.852973
-0.916977
-0.987976
-1.09523
-1.37146
-1.73712
-1.98696
-2.20018
-2.37649
-2.47472
-2.28489
-2.08683
-2.07257
-1.85394
-1.69079
-1.74552
-1.7284
-1.95477
-0.814753
-0.689312
-0.712751
-0.668054
-0.762336
-0.845642
-1.09533
-1.21012
-1.43355
-1.63062
-1.67055
-1.71881
-1.70801
-1.56732
-1.42646
-1.36505
-1.17983
-1.22452
-1.33661
-1.41122
-0.520391
-0.442726
-0.429073
-0.41582
-0.481122
-0.523622
-0.652115
-0.813618
-0.767543
-1.03949
-1.03549
-1.0517
-0.995949
-0.919352
-0.896528
-0.811916
-0.749532
-0.694055
-0.74073
-0.799794
-0.194087
-0.159123
-0.144731
-0.190433
-0.0802509
-0.0897239
-0.215853
-0.328317
-0.279876
-0.383485
-0.368949
-0.315964
-0.324897
-0.352942
-0.27571
-0.175872
-0.196041
-0.206338
-0.224558
-0.280789
-1.72119
-1.45376
-1.26733
-1.4172
-1.62432
-2.07756
-2.71855
-3.32812
-3.87095
-4.49089
-4.88911
-4.97251
-4.76015
-4.36508
-4.00144
-3.76701
-3.54329
-3.456
-3.59435
-3.90996
-1.68858
-1.49605
-1.35085
-1.41576
-1.64049
-1.94879
-2.46512
-2.9656
-3.56045
-3.95649
-4.2295
-4.38709
-4.28603
-4.01837
-3.56315
-3.28426
-3.14238
-3.11625
-3.24121
-3.5338
-1.6351
-1.49356
-1.35021
-1.30745
-1.50474
-1.77935
-2.2028
-2.655
-3.06823
-3.46079
-3.73107
-3.86799
-3.6551
-3.38151
-3.15331
-2.86048
-2.67476
-2.70233
-2.84313
-3.02119
-1.36511
-1.29011
-1.19513
-1.20224
-1.35357
-1.55877
-1.91319
-2.26763
-2.54266
-2.90427
-3.1225
-3.13437
-2.99936
-2.79301
-2.61221
-2.34686
-2.30601
-2.20613
-2.25865
-2.5003
-1.21118
-1.06036
-0.98672
-1.07582
-1.08914
-1.27728
-1.50373
-1.81135
-2.03903
-2.33417
-2.46019
-2.51541
-2.39681
-2.23062
-2.01073
-1.87862
-1.74659
-1.71872
-1.82908
-1.95214
-0.882782
-0.813602
-0.771327
-0.75436
-0.825501
-0.924282
-1.10631
-1.29543
-1.49253
-1.60982
-1.77221
-1.82512
-1.62963
-1.56391
-1.47189
-1.3954
-1.2892
-1.26719
-1.30905
-1.38379
-0.457152
-0.47152
-0.385866
-0.390861
-0.530221
-0.585137
-0.623966
-0.724013
-0.871143
-0.990971
-1.07729
-1.04955
-1.1154
-0.987802
-0.87057
-0.822604
-0.780442
-0.748412
-0.78988
-0.770602
-0.210068
-0.0716392
-0.136953
-0.164185
-0.115499
-0.234293
-0.218749
-0.309764
-0.304644
-0.310364
-0.391645
-0.327888
-0.415568
-0.331462
-0.336116
-0.226414
-0.290946
-0.290841
-0.245992
-0.305013
-1.84803
-1.60702
-1.48968
-1.50916
-1.82862
-2.11194
-2.66534
-3.37906
-3.98212
-4.49819
-4.779
-4.83501
-4.71013
-4.3914
-4.07612
-3.75407
-3.60725
-3.58271
-3.71557
-3.89464
-1.84522
-1.69639
-1.5333
-1.60386
-1.88404
-2.03446
-2.5083
-3.06299
-3.57096
-3.99776
-4.32828
-4.2829
-4.25484
-3.96719
-3.64768
-3.32621
-3.14808
-3.1608
-3.29302
-3.45192
-1.71335
-1.52589
-1.44226
-1.54783
-1.6874
-1.92388
-2.22072
-2.64648
-3.09624
-3.527
-3.70926
-3.69304
-3.66609
-3.34271
-3.10927
-2.84341
-2.82801
-2.68157
-2.7943
-2.99934
-1.59178
-1.38163
-1.32702
-1.2829
-1.47738
-1.66319
-1.96341
-2.29805
-2.69964
-2.91461
-3.04398
-3.09117
-3.10098
-2.84217
-2.66638
-2.45307
-2.31076
-2.23588
-2.37518
-2.45901
-1.27822
-1.14013
-1.06405
-1.11453
-1.13653
-1.35047
-1.55248
-1.87331
-2.05698
-2.3331
-2.40224
-2.48106
-2.35732
-2.19663
-1.9788
-1.92685
-1.85146
-1.82969
-1.94426
-1.96105
-0.951692
-0.859583
-0.776876
-0.816835
-0.820072
-0.946479
-1.16448
-1.3736
-1.47169
-1.7003
-1.82091
-1.70929
-1.70397
-1.60491
-1.52472
-1.36292
-1.29154
-1.27948
-1.37383
-1.47131
-0.627005
-0.603086
-0.503789
-0.523996
-0.549012
-0.583309
-0.7008
-0.808042
-0.912878
-0.999074
-1.08969
-1.10356
-1.0321
-1.02992
-0.883992
-0.9269
-0.742995
-0.727928
-0.828744
-0.844219
-0.18848
-0.212898
-0.160994
-0.169648
-0.223904
-0.247922
-0.200432
-0.356717
-0.271113
-0.352199
-0.401741
-0.393808
-0.368916
-0.39638
-0.256884
-0.308109
-0.21495
-0.20492
-0.303466
-0.28553
-1.91806
-1.67184
-1.58874
-1.62704
-1.84695
-2.20569
-2.65117
-3.24967
-3.84869
-4.26937
-4.64861
-4.67945
-4.54544
-4.27077
-3.94506
-3.60983
-3.52829
-3.46654
-3.6213
-3.86029
-1.81178
-1.82646
-1.5579
-1.60083
-1.74607
-2.10086
-2.46938
-3.00897
-3.49672
-3.81751
-3.9907
-4.20098
-4.11021
-3.84969
-3.49117
-3.30899
-3.14089
-3.17366
-3.28533
-3.41651
-1.81563
-1.66185
-1.53431
-1.51968
-1.61229
-1.93235
-2.28646
-2.71179
-3.08265
-3.40302
-3.56976
-3.65691
-3.48325
-3.28074
-3.0691
-2.92079
-2.7131
-2.64391
-2.83176
-3.02539
-1.53655
-1.45573
-1.27605
-1.34366
-1.47202
-1.70055
-1.97331
-2.25101
-2.46705
-2.77189
-3.00749
-3.08553
-2.97662
-2.82433
-2.5697
-2.36689
-2.33224
-2.32224
-2.40834
-2.53691
-1.33286
-1.19111
-1.17984
-1.09843
-1.23915
-1.35229
-1.58737
-1.78625
-2.03911
-2.24188
-2.41068
-2.42002
-2.30915
-2.14674
-1.98478
-1.87638
-1.80557
-1.75265
-1.88216
-1.97425
-1.01399
-0.916112
-0.88668
-0.800763
-0.927876
-0.952859
-1.16405
-1.24192
-1.44552
-1.57676
-1.71282
-1.70619
-1.7217
-1.5403
-1.43835
-1.42371
-1.35469
-1.27753
-1.31784
-1.43602
-0.578674
-0.549173
-0.54245
-0.512809
-0.538302
-0.621021
-0.68438
-0.783218
-0.892816
-0.953843
-0.966164
-1.06802
-1.01425
-0.957883
-0.902437
-0.803392
-0.78741
-0.810378
-0.792986
-0.82757
-0.177099
-0.208836
-0.159498
-0.0725845
-0.137071
-0.124567
-0.22646
-0.247295
-0.324969
-0.274229
-0.3512
-0.3687
-0.363677
-0.357482
-0.328789
-0.29364
-0.248492
-0.29751
-0.269033
-0.266091
-1.89496
-1.63658
-1.51434
-1.63567
-1.79641
-2.10504
-2.50274
-3.16217
-3.63065
-4.0378
-4.30667
-4.42028
-4.28221
-4.11053
-3.76181
-3.4994
-3.4666
-3.36181
-3.5034
-3.78381
-1.86333
-1.71901
-1.57643
-1.66048
-1.78968
-2.11134
-2.49063
-2.87137
-3.29166
-3.64455
-3.8798
-3.91429
-3.83832
-3.66946
-3.32787
-3.16443
-3.09914
-3.07207
-3.21641
-3.39892
-1.7497
-1.62597
-1.55055
-1.57457
-1.66357
-1.91061
-2.23952
-2.5283
-2.85428
-3.17082
-3.40157
-3.41642
-3.29127
-3.12251
-2.96701
-2.8173
-2.69587
-2.65928
-2.79532
-2.97032
-1.60091
-1.41983
-1.31909
-1.35993
-1.39908
-1.62236
-1.82395
-2.10581
-2.45515
-2.66771
-2.72331
-2.88693
-2.8253
-2.58285
-2.39484
-2.34324
-2.22689
-2.20362
-2.29994
-2.5
-1.33003
-1.2375
-1.13347
-1.10391
-1.13458
-1.29828
-1.59311
-1.71264
-1.97363
-2.10646
-2.2887
-2.27744
-2.15019
-2.0621
-1.96236
-1.81442
-1.81192
-1.71484
-1.87611
-1.96006
-0.920915
-0.888504
-0.803964
-0.797136
-0.869848
-1.06108
-1.11905
-1.31534
-1.41793
-1.55648
-1.60751
-1.61653
-1.60927
-1.61826
-1.45786
-1.36102
-1.30322
-1.27678
-1.32867
-1.35853
-0.595408
-0.571097
-0.561668
-0.561339
-0.542926
-0.62871
-0.653264
-0.775103
-0.899189
-0.957024
-0.953822
-0.979755
-0.941781
-0.894472
-0.869145
-0.77439
-0.776808
-0.796634
-0.786111
-0.895372
-0.276178
-0.127566
-0.193125
-0.120523
-0.196636
-0.196907
-0.232957
-0.253292
-0.334331
-0.37229
-0.359218
-0.33953
-0.289181
-0.28972
-0.293108
-0.233837
-0.268053
-0.272793
-0.276572
-0.288424
-1.79648
-1.6279
-1.47323
-1.54168
-1.72123
-1.95396
-2.45732
-2.80416
-3.29424
-3.65744
-3.88766
-3.94754
-3.97287
-3.67194
-3.45599
-3.2441
-3.07536
-3.16158
-3.29981
-3.53926
-1.82207
-1.69612
-1.56719
-1.51866
-1.6201
-1.84676
-2.24168
-2.63268
-2.99754
-3.27567
-3.53277
-3.64879
-3.48227
-3.37823
-3.04148
-3.02031
-2.87811
-2.84891
-2.97275
-3.21428
-1.73516
-1.52297
-1.48517
-1.55156
-1.63602
-1.7902
-2.02633
-2.38829
-2.58089
-2.90282
-3.03392
-3.14328
-3.05334
-2.96185
-2.72289
-2.65003
-2.53143
-2.49719
-2.58621
-2.8041
-1.60497
-1.3852
-1.35747
-1.39894
-1.40233
-1.55705
-1.77946
-2.03273
-2.29813
-2.48733
-2.62048
-2.57886
-2.54709
-2.41606
-2.22586
-2.11498
-2.04516
-2.15071
-2.18024
-2.37518
-1.19617
-1.18684
-1.10705
-1.115
-1.12887
-1.29163
-1.41202
-1.64022
-1.75593
-1.9136
-2.01241
-2.10402
-2.01175
-1.93131
-1.85614
-1.71827
-1.66274
-1.72293
-1.66066
-1.83478
-0.973518
-0.964684
-0.896245
-0.76272
-0.885107
-0.910379
-1.03909
-1.18808
-1.23857
-1.42047
-1.36946
-1.46371
-1.43119
-1.45618
-1.30955
-1.30241
-1.29745
-1.22842
-1.34096
-1.38959
-0.642158
-0.546422
-0.508765
-0.473265
-0.487747
-0.609298
-0.62285
-0.793386
-0.764097
-0.857757
-0.939635
-0.882937
-0.927378
-0.827336
-0.83708
-0.71403
-0.778521
-0.685126
-0.863222
-0.771471
-0.194013
-0.220497
-0.22261
-0.146951
-0.143428
-0.11421
-0.196817
-0.227026
-0.267524
-0.251895
-0.300389
-0.294849
-0.276033
-0.295894
-0.280845
-0.227102
-0.171979
-0.26116
-0.338302
-0.229474
-1.63206
-1.44791
-1.34241
-1.36376
-1.38352
-1.74492
-2.12863
-2.47296
-2.81582
-3.23114
-3.45011
-3.48273
-3.49396
-3.25839
-3.05387
-2.94269
-2.81714
-2.86371
-3.02747
-3.26812
-1.67086
-1.58601
-1.42164
-1.38192
-1.49526
-1.70166
-2.00358
-2.34336
-2.61326
-2.8818
-3.22486
-3.22759
-3.1125
-3.00206
-2.83837
-2.6579
-2.58682
-2.63464
-2.75867
-3.04388
-1.59136
-1.50191
-1.39288
-1.3142
-1.40604
-1.61462
-1.78277
-2.09131
-2.35732
-2.63596
-2.7847
-2.86677
-2.66728
-2.55229
-2.46919
-2.35415
-2.21323
-2.25086
-2.39491
-2.5429
-1.4156
-1.39741
-1.17724
-1.25359
-1.30712
-1.48211
-1.65124
-1.80114
-2.04957
-2.19483
-2.37723
-2.41433
-2.34011
-2.16103
-2.03178
-1.89984
-1.94874
-2.00675
-2.05425
-2.21344
-1.13838
-1.14876
-1.05069
-1.01036
-0.992803
-1.08767
-1.26539
-1.40379
-1.57581
-1.77332
-1.8635
-1.82191
-1.80234
-1.80923
-1.63265
-1.58474
-1.49824
-1.58536
-1.61012
-1.76311
-0.896766
-0.849104
-0.758569
-0.72502
-0.802506
-0.798302
-0.993627
-1.04508
-1.18803
-1.30076
-1.32765
-1.3875
-1.35155
-1.25814
-1.21252
-1.18162
-1.14203
-1.07142
-1.19533
-1.22338
-0.587621
-0.612662
-0.454871
-0.476738
-0.472507
-0.551424
-0.549117
-0.618624
-0.676997
-0.768326
-0.788708
-0.780115
-0.807934
-0.758679
-0.750078
-0.704493
-0.667186
-0.717198
-0.676375
-0.757692
-0.181868
-0.146041
-0.131038
-0.135824
-0.187986
-0.226375
-0.119485
-0.246226
-0.250588
-0.279476
-0.333322
-0.351763
-0.277394
-0.287161
-0.234484
-0.322253
-0.292024
-0.238419
-0.253135
-0.245436
-1.43827
-1.2119
-1.04254
-1.06982
-1.15841
-1.42982
-1.72576
-2.03269
-2.39833
-2.74307
-2.89911
-2.97447
-2.84598
-2.88369
-2.64596
-2.49396
-2.46119
-2.51488
-2.65543
-2.94782
-1.48282
-1.22267
-1.13844
-1.16786
-1.28247
-1.42045
-1.65597
-1.93999
-2.27349
-2.48055
-2.54731
-2.79392
-2.67509
-2.56965
-2.43407
-2.35446
-2.29282
-2.22852
-2.4183
-2.64931
-1.37881
-1.2912
-1.19178
-1.15649
-1.16711
-1.35838
-1.60518
-1.74622
-2.07836
-2.18274
-2.28419
-2.35816
-2.41684
-2.31004
-2.10983
-2.05926
-1.96809
-2.08567
-2.22206
-2.35651
-1.29706
-1.21554
-1.02618
-1.05924
-1.10158
-1.20819
-1.37099
-1.54371
-1.68691
-1.84388
-1.99125
-2.06899
-1.95228
-1.94318
-1.83324
-1.69217
-1.70304
-1.76012
-1.88194
-1.99131
-1.0528
-1.0307
-0.916728
-0.867375
-0.857287
-0.991289
-1.06382
-1.23569
-1.35502
-1.52245
-1.57641
-1.61716
-1.58798
-1.50819
-1.43147
-1.44574
-1.37198
-1.39893
-1.46372
-1.48609
-0.822042
-0.678427
-0.639051
-0.654911
-0.707184
-0.752191
-0.792889
-0.95899
-0.965957
-1.12238
-1.13368
-1.20328
-1.15944
-1.09422
-1.0552
-1.06319
-0.934568
-1.094
-1.05635
-1.15288
-0.567359
-0.46116
-0.393424
-0.394719
-0.400242
-0.527977
-0.478342
-0.626711
-0.648387
-0.700263
-0.718679
-0.716548
-0.662438
-0.67931
-0.593503
-0.611331
-0.493502
-0.565565
-0.659246
-0.607788
-0.189471
-0.156631
-0.15728
-0.103531
-0.132486
-0.137075
-0.0870682
-0.223335
-0.260541
-0.246336
-0.192794
-0.234811
-0.312221
-0.171616
-0.195363
-0.161548
-0.135116
-0.203461
-0.120999
-0.210323
-1.086
-0.89108
-0.751512
-0.713005
-0.78255
-0.930415
-1.29983
-1.52666
-1.90272
-2.07247
-2.29446
-2.27108
-2.25109
-2.267
-2.11639
-1.99837
-2.00042
-2.03621
-2.27748
-2.52016
-1.22151
-1.08159
-0.955072
-0.83624
-0.927313
-1.01591
-1.27758
-1.57389
-1.84705
-2.09646
-2.10849
-2.20955
-2.15495
-2.15073
-2.01497
-1.84701
-1.82788
-1.89304
-2.0735
-2.27398
-1.28161
-1.08219
-1.00727
-0.901048
-0.997504
-1.12034
-1.26545
-1.43167
-1.66918
-1.79043
-1.94365
-1.97353
-1.93995
-1.86443
-1.72574
-1.65909
-1.68853
-1.76077
-1.85374
-2.09451
-1.11716
-0.996467
-0.897409
-0.888248
-0.909381
-0.970449
-1.11364
-1.31944
-1.48447
-1.51638
-1.68756
-1.74959
-1.69545
-1.53576
-1.57019
-1.4182
-1.40123
-1.45417
-1.6537
-1.7174
-0.970808
-0.89264
-0.695195
-0.717931
-0.780068
-0.864954
-0.909284
-1.0514
-1.14598
-1.24078
-1.35195
-1.40504
-1.31546
-1.29594
-1.17167
-1.12424
-1.13751
-1.15021
-1.2879
-1.42812
-0.704865
-0.700994
-0.568871
-0.598781
-0.534396
-0.652804
-0.743552
-0.763021
-0.896703
-0.954025
-0.950404
-0.982401
-0.954552
-0.955781
-0.869972
-0.846161
-0.885821
-0.877576
-0.979132
-0.967223
-0.462214
-0.387607
-0.359269
-0.371451
-0.363771
-0.345997
-0.41701
-0.458286
-0.485775
-0.537573
-0.600145
-0.659069
-0.594274
-0.576537
-0.562937
-0.542887
-0.523039
-0.509491
-0.573431
-0.598381
-0.15519
-0.168971
-0.196204
-0.08395
-0.208876
-0.167942
-0.20693
-0.175245
-0.252908
-0.24413
-0.19733
-0.216588
-0.178459
-0.19337
-0.237981
-0.202915
-0.0658992
-0.216336
-0.212329
-0.162779
-0.778963
-0.487146
-0.334422
-0.384525
-0.37979
-0.641475
-0.818342
-1.06561
-1.27232
-1.54889
-1.6667
-1.73251
-1.75013
-1.71958
-1.63993
-1.5688
-1.52562
-1.69753
-1.77473
-2.08146
-0.900238
-0.79069
-0.654262
-0.522318
-0.591412
-0.713539
-0.93153
-1.12594
-1.29598
-1.50282
-1.52835
-1.6309
-1.74145
-1.63063
-1.50193
-1.5497
-1.40445
-1.57653
-1.70729
-1.94511
-1.03721
-0.888648
-0.696243
-0.614348
-0.585488
-0.806605
-0.924658
-1.11398
-1.30987
-1.44027
-1.53058
-1.53554
-1.53124
-1.48809
-1.31262
-1.32751
-1.31649
-1.44742
-1.62365
-1.80542
-0.861632
-0.885198
-0.731401
-0.648126
-0.679998
-0.766539
-0.921454
-1.07462
-1.12308
-1.25949
-1.32392
-1.29442
-1.28065
-1.2735
-1.33018
-1.18575
-1.14206
-1.3557
-1.34915
-1.4699
-0.82868
-0.781151
-0.580283
-0.55658
-0.587731
-0.600465
-0.653543
-0.843622
-0.886654
-1.00547
-1.13296
-1.03116
-1.02504
-1.1346
-0.939705
-0.962334
-1.03787
-1.08023
-1.07215
-1.19466
-0.710117
-0.582139
-0.509215
-0.502728
-0.43007
-0.465963
-0.495574
-0.668999
-0.716392
-0.806485
-0.843399
-0.86302
-0.798415
-0.800228
-0.756747
-0.73577
-0.721556
-0.748992
-0.871447
-0.975243
-0.364814
-0.387767
-0.241742
-0.299698
-0.286324
-0.32744
-0.234874
-0.362595
-0.468443
-0.401114
-0.427478
-0.475625
-0.487477
-0.494015
-0.441197
-0.426934
-0.37793
-0.456632
-0.480329
-0.454038
-0.0958905
-0.094354
-0.142644
-0.11663
-0.153317
-0.0954428
-0.107756
-0.131385
-0.18071
-0.168374
-0.1115
-0.159022
-0.197861
-0.119207
-0.113533
-0.143074
-0.127644
-0.177565
-0.20076
-0.235689
-0.426829
-0.297873
-0.0876547
0.0372567
-0.0911584
-0.275586
-0.421781
-0.554099
-0.866459
-1.10626
-1.27198
-1.36485
-1.26437
-1.24009
-1.07386
-1.14093
-1.07907
-1.24853
-1.45544
-1.70812
-0.715119
-0.502121
-0.402717
-0.261671
-0.367717
-0.405032
-0.546837
-0.817467
-0.964991
-1.11231
-1.2858
-1.22934
-1.24789
-1.22547
-1.245
-1.09256
-1.13891
-1.21198
-1.441
-1.65861
-0.831003
-0.631552
-0.559797
-0.385396
-0.467467
-0.57094
-0.655905
-0.732272
-0.961548
-1.1019
-1.23804
-1.24341
-1.19806
-1.19722
-1.14399
-1.0709
-1.10949
-1.19135
-1.32827
-1.5257
-0.792507
-0.679483
-0.551812
-0.468176
-0.501021
-0.563529
-0.704107
-0.797774
-0.934216