/*--------------------------------*- C++ -*----------------------------------*\
| =========                 |                                                 |
| \\      /  F ield         | OpenFOAM: The Open Source CFD Toolbox           |
|  \\    /   O peration     | Version:  2212                                  |
|   \\  /    A nd           | Website:  www.openfoam.com                      |
|    \\/     M anipulation  |                                                 |
\*---------------------------------------------------------------------------*/
FoamFile
{
    version     2.0;
    format      ascii;
    arch        "LSB;label=32;scalar=64";
    class       volScalarField;
    location    "0";
    object      relativeErrorField;
}
// * * * * * * * * * * * * * * * * * * * * * * * * * * * * * * * * * * * * * //

dimensions      [0 0 0 1 0 0 0];

internalField   nonuniform List<scalar> 
3200
(
0.00290375
0.00466382
0.00559911
0.00577463
0.00525536
0.00435048
0.00295717
0.00150282
0.000190139
0.00103577
0.0015959
0.0019089
0.00196833
0.00178477
0.0014359
0.00122475
0.00116826
0.00159593
0.00314091
0.00505077
0.00186875
0.00327539
0.004477
0.00459795
0.00425478
0.00305904
0.00208489
0.000784713
0.000307068
0.00123367
0.00173798
0.0022348
0.00202557
0.00205664
0.00159743
0.00120069
0.00106205
0.00152648
0.0030395
0.00462474
0.0010303
0.00230397
0.00314945
0.00360376
0.00288042
0.00259484
0.00136548
0.000250219
0.000376224
0.00108796
0.00180422
0.00168676
0.0020165
0.00188285
0.00145514
0.00122525
0.00127727
0.00171672
0.00272675
0.00425797
0.000646726
0.00168143
0.00234558
0.00269904
0.00219896
0.00161928
0.000995821
0.000360387
0.000568544
0.00134851
0.00161668
0.00189841
0.00178195
0.00158724
0.00137126
0.00138583
0.00132736
0.0015313
0.00248629
0.00335292
3.76504e-05
0.000829251
0.00172196
0.00175862
0.00174822
0.00144747
0.000629536
9.55082e-05
0.000740779
0.00121375
0.00152325
0.00133196
0.00160897
0.0011319
0.00120287
0.000947863
0.000900452
0.00129715
0.00202145
0.00255729
0.000115233
0.000825336
0.000946507
0.00120019
0.000985926
0.000696805
0.000453453
0.000501824
0.000650349
0.000949453
0.00103155
0.00118219
0.00134169
0.00111418
0.000957122
0.000613533
0.000591782
0.00092496
0.00156051
0.0022188
1.32445e-05
0.000535793
0.000833103
0.000652296
0.000890142
0.000363538
0.00020155
0.000249126
0.000416133
0.000438064
0.000833833
0.000656537
0.000596704
0.000604683
0.000452007
0.000424768
0.000559412
0.00050674
0.000906497
0.00121682
1.06214e-05
7.58725e-05
0.000282413
0.000493821
0.000219725
3.52234e-05
7.40323e-05
9.55354e-05
0.000175818
0.000223686
0.000322305
0.000187588
0.000465245
0.000152159
4.99093e-05
4.27249e-05
2.92637e-05
9.21204e-05
0.00035625
0.000152374
0.00232776
0.00403935
0.00525128
0.00531302
0.00466156
0.00358254
0.00220783
0.000692396
0.000846011
0.00180807
0.00275511
0.00289742
0.00324837
0.00267771
0.00213849
0.00170317
0.00157529
0.00216144
0.00347617
0.00544082
0.00160689
0.00304086
0.00391738
0.00416404
0.00379933
0.00293869
0.00149447
0.00042555
0.000843028
0.00224867
0.00262541
0.00299483
0.00286414
0.00275734
0.00223613
0.00171116
0.0019058
0.00238444
0.00357489
0.00512148
0.000798306
0.00194922
0.00284906
0.00293192
0.00257798
0.00203083
0.000930748
0.000261969
0.00142652
0.00200868
0.00273765
0.00297184
0.00258438
0.00232392
0.00186705
0.00174754
0.00150524
0.00201047
0.0029794
0.00442009
0.000328322
0.00129348
0.00210798
0.00225215
0.00204652
0.00132856
0.000677916
0.000573898
0.00147891
0.00191685
0.00241483
0.00227592
0.00260845
0.00219096
0.00164605
0.00147129
0.0014555
0.0020031
0.00281057
0.00363249
0.000193211
0.000910678
0.00143894
0.00154464
0.00157598
0.000826114
3.10907e-05
0.00044241
0.00108008
0.00151885
0.00176863
0.00204761
0.00227469
0.00173789
0.00151499
0.00124056
0.00131087
0.00147877
0.00216314
0.00291943
9.82279e-05
0.000375925
0.000840728
0.00102102
0.00118778
0.000669896
0.00017504
0.000395447
0.000784683
0.00133355
0.00161589
0.00137196
0.00133804
0.00130374
0.00126414
0.000930097
0.00108464
0.00110074
0.00155739
0.00211969
5.5142e-05
0.000316602
0.000596839
0.000282028
0.000361317
0.000351098
3.40371e-05
0.000259048
0.00066932
0.000593295
0.000974375
0.000984664
0.00089264
0.000862153
0.000590417
0.000811099
0.000656326
0.000559337
0.000908067
0.0010866
0.000220832
0.000188171
0.000251459
0.000252055
3.68205e-05
3.23417e-05
0.000123348
6.91565e-05
0.000281571
0.000336192
0.000317611
0.000475518
0.000213761
8.75831e-05
0.000449741
5.5885e-05
0.000164047
0.000300011
0.000618691
0.000471229
0.00206322
0.00353109
0.0045233
0.00478435
0.00393446
0.00266662
0.00103866
0.000700738
0.00208128
0.00358307
0.00420366
0.0045713
0.00449422
0.00384097
0.00337405
0.00269435
0.00264199
0.00291463
0.0041983
0.006192
0.00106652
0.00248374
0.00363444
0.00348172
0.00282744
0.00193184
0.00049362
0.00092065
0.00213688
0.00354963
0.00415138
0.00417004
0.0040749
0.00365864
0.00318134
0.00279548
0.00240752
0.00306811
0.00392987
0.00523883
0.000505385
0.0015167
0.00243393
0.0028442
0.0020776
0.00111246
0.000212199
0.00131173
0.0023478
0.00299067
0.00382235
0.00387983
0.00383056
0.00351017
0.00282745
0.00251503
0.0021634
0.00266254
0.00359876
0.0046597
2.26774e-05
0.00100755
0.001556
0.00174952
0.00137149
0.000570327
0.000315459
0.00100719
0.00194367
0.00263502
0.00310439
0.00333145
0.00322471
0.00284575
0.00263282
0.00222066
0.00210211
0.00230416
0.00305967
0.00395888
0.000163669
0.000624422
0.00122668
0.00109121
0.000838687
0.00032629
7.92528e-05
0.000983232
0.00170819
0.00234099
0.00269196
0.00265857
0.00280548
0.00267797
0.00205534
0.00165102
0.00158661
0.00196537
0.00285427
0.00325032
0.000119134
0.000416636
0.00103888
0.000658656
0.000374446
0.000135171
0.000136905
0.000956344
0.00117927
0.00191521
0.00194067
0.00213917
0.00203743
0.00166224
0.00156375
0.00118081
0.00118876
0.00120254
0.00181905
0.00247293
0.000194955
0.000129777
0.000330397
0.000444086
0.00059792
7.3332e-05
0.000260911
0.000466286
0.000754499
0.0011145
0.00123756
0.00130081
0.00142382
0.0010545
0.000824182
0.000856746
0.000788487
0.00091111
0.000934953
0.00146439
8.44815e-05
0.000254236
5.7344e-09
0.000401278
0.000217633
0.00016337
0.000167088
0.000271394
0.000264809
0.00030046
0.000497766
0.000509713
8.9343e-05
0.000334066
1.48582e-05
0.000174238
5.48261e-05
0.000328899
0.000338415
0.000409456
0.00128756
0.00265393
0.00357702
0.00359513
0.00274457
0.00121698
0.000416992
0.00233166
0.00368218
0.00512571
0.00594937
0.00638202
0.0063257
0.00551594
0.00481847
0.0041032
0.00358153
0.00377907
0.00519159
0.00680034
0.000570513
0.00165584
0.00248373
0.00247366
0.00201655
0.000707118
0.00083426
0.00231852
0.00386607
0.00498721
0.00578108
0.00604165
0.00577237
0.00527049
0.00433135
0.00375638
0.00347902
0.00363546
0.00446465
0.00606767
0.000323333
0.000955536
0.00149948
0.0020366
0.00101902
0.000120074
0.000894514
0.00218867
0.0033448
0.00436289
0.00492645
0.00527407
0.0051512
0.00449275
0.00410555
0.00345357
0.00301653
0.00333248
0.00430654
0.00534027
0.000661202
0.000468141
0.00100067
0.00103902
0.000555352
4.45842e-05
0.00115261
0.00177383
0.00294519
0.00374217
0.00451648
0.00439291
0.0043357
0.00398826
0.00366172
0.00313954
0.00264648
0.00271961
0.00367406
0.00428862
0.000727566
0.000134774
0.000741782
0.000722814
0.000255399
9.67432e-05
0.0010699
0.00184682
0.002416
0.00311501
0.00347259
0.00338951
0.0034487
0.00328691
0.0028493
0.00254671
0.00215093
0.00223172
0.00291822
0.0033971
0.000483889
0.000152562
0.000384404
0.000433662
0.000232072
0.000293832
0.000766508
0.00146386
0.00190861
0.00234327
0.00269447
0.00263116
0.00277617
0.00224975
0.00181868
0.00172309
0.00164441
0.00183705
0.00216361
0.0027514
0.000366616
0.000289837
0.000185455
0.000141893
0.000182293
4.93957e-05
0.000571089
0.00059919
0.00112921
0.00155297
0.0016219
0.00165129
0.00174478
0.00163474
0.00119794
0.000876174
0.00105564
0.00115809
0.00118804
0.00161499
0.000222501
3.07014e-05
0.000111144
0.000310745
0.000148024
0.000404415
0.000240645
0.000205535
0.000430648
0.000775404
0.000458742
0.000529931
0.000598118
0.000742217
0.000541505
0.000306524
0.000259312
0.000468405
0.000446994
0.000531607
0.000325814
0.00153076
0.00226829
0.00221644
0.00149169
5.66306e-05
0.00158631
0.0038432
0.00549584
0.00678281
0.00800578
0.00814142
0.00805766
0.00732563
0.00622849
0.00518943
0.0048435
0.00521462
0.00608123
0.00746413
0.000345675
0.000739272
0.00160031
0.00164236
0.000745881
0.000356855
0.00212397
0.00370775
0.00528874
0.00652009
0.00735346
0.00753326
0.00709129
0.00656664
0.00585305
0.00511267
0.00461948
0.00486733
0.00573667
0.00702193
0.000714292
0.000240097
0.000791099
0.00068093
0.000131588
0.000755499
0.00218028
0.00338133
0.00469809
0.00580379
0.00642091
0.00675039
0.00651514
0.00563861
0.005134
0.00447504
0.00386655
0.00398485
0.00511741
0.00619943
0.000846451
0.000420389
0.000483563
0.00059625
0.000139266
0.00077903
0.00201543
0.00295974
0.00406911
0.00496309
0.00536595
0.00563232
0.0050867
0.00502127
0.00450508
0.00358875
0.00357258
0.00375093
0.00413636
0.00494034
0.000765581
0.000449893
3.88186e-06
3.6676e-06
6.57315e-05
0.00102201
0.0015571
0.00248939
0.00318907
0.00383585
0.00437381
0.00468745
0.0043388
0.00406287
0.00367548
0.00323151
0.00265729
0.00274207
0.00356254
0.00394891
0.000816695
0.00026019
4.81164e-05
8.44804e-05
0.000155393
0.000767208
0.00131489
0.00184567
0.00250649
0.00306426
0.00318574
0.00335599
0.00315362
0.00301557
0.00245944
0.0022918
0.00208327
0.0022534
0.00227918
0.00271568
0.000260758
0.0002394
0.000163918
1.90436e-05
1.63483e-05
0.000559046
0.000631944
0.00111822
0.00139385
0.00175224
0.00212063
0.00199114
0.00197927
0.00178304
0.00160517
0.00118004
0.00114041
0.00132449
0.00173836
0.00184012
0.000293441
8.79563e-05
0.000105508
8.43279e-05
0.000197758
5.83776e-05
0.000282925
0.000348492
0.000560491
0.000901372
0.000647657
0.000578345
0.00044303
0.000366456
0.0006407
0.000332918
0.000489704
0.000450647
0.000566287
0.000330557
0.000661416
0.000262415
0.00153497
0.00116851
0.000341725
0.00135317
0.00313957
0.00491688
0.0072878
0.00852601
0.00970331
0.0100355
0.00966851
0.00891899
0.00758486
0.00677798
0.00631999
0.00620187
0.00724716
0.00857633
0.00145561
6.73409e-05
0.000395514
0.000450282
0.000521382
0.00160208
0.00337476
0.0048138
0.00639596
0.00798791
0.00862847
0.00911099
0.00890367
0.0078506
0.00688066
0.00625205
0.0056353
0.00582184
0.006543
0.00790137
0.00152273
0.000631281
0.000292127
1.01746e-05
0.000902042
0.00164348
0.00325683
0.00464766
0.00562446
0.00688703
0.00777302
0.00801863
0.0078517
0.00729871
0.00615314
0.00555841
0.0048973
0.005217
0.00571737
0.00680174
0.00182026
0.000839676
0.000526525
0.000555098
0.00101099
0.00178165
0.0027556
0.0040612
0.00511578
0.00606626
0.00674356
0.00680221
0.0064287
0.00594676
0.00531534
0.00476746
0.00432781
0.00429489
0.0050464
0.00571647
0.00154466
0.000981058
0.000438565
0.000486957
0.00101495
0.00139068
0.00249534
0.00319281
0.00417854
0.0045779
0.00523381
0.00504837
0.00505551
0.00484327
0.00403893
0.00372883
0.00336209
0.00339276
0.00370704
0.00441733
0.00136808
0.00113285
0.000338769
0.000457459
0.000791079
0.00119922
0.00162696
0.00235981
0.00293023
0.00340189
0.00379957
0.0037247
0.00351921
0.00354002
0.00293488
0.0025399
0.0021771
0.00271279
0.00272988
0.00328878
0.000851186
0.000768775
0.000603137
6.47518e-05
0.000567991
0.000730498
0.000975792
0.00179086
0.00175087
0.00224162
0.002542
0.00223167
0.00244798
0.00209961
0.00199765
0.00143324
0.00152211
0.00168133
0.00186907
0.00202357
0.000360659
0.000257497
0.000296191
0.000150734
0.000333806
0.000204329
0.000333635
0.000529201
0.000608433
0.000564291
0.000952355
0.000518041
0.000702462
0.000605467
0.000705994
0.000615904
0.000666767
0.000493811
0.000500966
0.000703565
0.00183603
0.0010138
0.000182177
3.16194e-05
0.00110658
0.00277053
0.0045336
0.00676297
0.00856047
0.0103253
0.0116111
0.0117789
0.0115348
0.0103498
0.00911781
0.00825776
0.00759359
0.00762315
0.00832058
0.00963717
0.00218179
0.00133433
0.000547525
0.000922575
0.00135447
0.00276233
0.00433491
0.00635454
0.00817211
0.00937754
0.0101565
0.0105539
0.0101843
0.00942951
0.00849735
0.00737509
0.00682846
0.00687631
0.00751192
0.00849008
0.00278595
0.00151621
0.00125771
0.000943757
0.00163493
0.00288743
0.00409384
0.00548713
0.00694965
0.00821883
0.00915144
0.00934009
0.00882201
0.00801265
0.00737891
0.00649518
0.00619688
0.00609785
0.00653337
0.00745383
0.00224186
0.00171475
0.00121347
0.00106081
0.00196819
0.00284177
0.00393364
0.00494699
0.00603903
0.00691935
0.00758094
0.00764405
0.00743767
0.0067939
0.00616063
0.00545096
0.00491594
0.00500073
0.00524331
0.00608289
0.00196578
0.00157382
0.00113652
0.00114101
0.00166945
0.00189458
0.00297658
0.00395733
0.0047752
0.00549652
0.00626625
0.00601912
0.00602251
0.00522295
0.00476533
0.00429599
0.00388355
0.00389289
0.00439929
0.00514747
0.00148384
0.00127185
0.000776924
0.000856579
0.00138018
0.00182188
0.00243262
0.00293959
0.003495
0.00377804
0.00437057
0.00476404
0.00445628
0.0039432
0.00339726
0.00309994
0.0030416
0.00279816
0.00319699
0.00349297
0.00106456
0.000822462
0.000157642
0.000497493
0.000484279
0.0010767
0.00158168
0.00202496
0.00224165
0.0026942
0.00283097
0.00281406
0.00269087
0.0023291
0.00204049
0.00175644
0.00208663
0.00174435
0.00188032
0.00234292
0.000313574
2.96465e-05
1.06628e-05
7.79525e-05
0.000108827
0.000359965
0.000568142
0.000624296
0.000719721
0.000866051
0.000798986
0.00105561
0.00101456
0.0007804
0.000752677
0.000609303
0.000671159
0.000835507
0.000753707
0.000779592
0.00279751
0.00168195
0.00140901
0.0015058
0.00252615
0.00393778
0.00555252
0.00793957
0.0100731
0.0116648
0.0130192
0.0133858
0.0127999
0.0117117
0.0103897
0.00924112
0.00857578
0.0087775
0.00908325
0.0103381
0.0033745
0.00236342
0.00155754
0.00206916
0.00273733
0.00399121
0.00534456
0.00728547
0.00919296
0.0108991
0.0113168
0.01177
0.0116695
0.0105316
0.00915873
0.0085861
0.00819981
0.0076441
0.0082687
0.00920933
0.00333382
0.00243551
0.00189664
0.00228018
0.00288317
0.00337702
0.00495406
0.00672417
0.00809975
0.00941795
0.0100857
0.0102454
0.0100042
0.00912533
0.00825777
0.00734711
0.00674681
0.00683637
0.00718068
0.00812211
0.00315431
0.00241781
0.00178965
0.002144
0.00244852
0.00351136
0.00457035
0.00572227
0.00674831
0.00796384
0.00844476
0.00875663
0.00848787
0.00757216
0.00681183
0.00603304
0.0059516
0.00588769
0.00608196
0.00694433
0.00255011
0.00206222
0.00162439
0.0017026
0.00202372
0.00272032
0.00364136
0.00473855
0.00570222
0.00644823
0.0067328
0.00710625
0.00669311
0.00635576
0.00530218
0.0049642
0.00453176
0.0046164
0.00485954
0.00568881
0.00185134
0.00145881
0.00151132
0.00140865
0.00156265
0.00210902
0.00233956
0.0032908
0.00403132
0.00460078
0.00476831
0.00506228
0.00454514
0.00426814
0.00413503
0.00380268
0.00358504
0.00352055
0.00345306
0.00379073
0.00125201
0.00103028
0.000656896
0.000911117
0.00104036
0.00144766
0.00150435
0.00210244
0.00245508
0.00252183
0.00318574
0.00307275
0.00298724
0.00244153
0.00258062
0.00222422
0.00223823
0.00236909
0.00232198
0.00268609
0.000482882
0.000324199
4.65934e-06
0.000397201
0.000236981
0.000724593
0.000500317
0.000565537
0.0011251
0.0011451
0.00112574
0.000958553
0.00119748
0.000791773
0.00102034
0.000667025
0.000689818
0.000463056
0.000605594
0.000775812
0.00397366
0.00285216
0.00237462
0.00235853
0.00339346
0.00516166
0.00669253
0.00905408
0.0108534
0.0128584
0.0138788
0.0142335
0.0135166
0.0126776
0.0113775
0.010392
0.00956482
0.00950329
0.00998612
0.0111652
0.00415712
0.00322092
0.00273736
0.00280841
0.00355254
0.00520056
0.00664079
0.00843529
0.0101761
0.0117337
0.0126854
0.0128528
0.0123929
0.0113219
0.0104353
0.00933397
0.00869781
0.00853477
0.00915229
0.0100504
0.00388833
0.00317116
0.00267166
0.00303708
0.0035495
0.00435187
0.00608791
0.00748937
0.00906388
0.0101748
0.0110448
0.0111186
0.0107467
0.0097094
0.00922209
0.00820118
0.00761292
0.00757499
0.00808305
0.00892272
0.0034492
0.0028675
0.00276088
0.00278155
0.00309453
0.00385915
0.00502349
0.00623853
0.00775526
0.00871178
0.00933334
0.00927124
0.0090053
0.00849319
0.00749213
0.00694531
0.00644767
0.00657375
0.00667736
0.00724187
0.00312232
0.00283849
0.00234719
0.00217647
0.00268939
0.00343222
0.00445624
0.00506331
0.00631885
0.00672144
0.00737959
0.0075679
0.00726542
0.00663307
0.00598464
0.00547166
0.00516095
0.00498091
0.00563539
0.00606503
0.00230669
0.00201174
0.00187821
0.00207736
0.00183963
0.00262265
0.003191
0.00368911
0.00458707
0.00492215
0.00517762
0.00522312
0.00517555
0.00486358
0.00444982
0.00382852
0.00363251
0.00372339
0.00397971
0.00420898
0.00136729
0.00126165
0.00117477
0.00108001
0.00119599
0.00137807
0.00205992
0.00235062
0.00270391
0.00299428
0.00328704
0.0034419
0.00330409
0.00274234
0.00252545
0.00248067
0.00239343
0.00211324
0.00246978
0.0023751
0.000463406
0.000291662
0.000501587
0.000336161
0.000469687
0.000651583
0.000823345
0.0011131
0.00123178
0.000785003
0.000982164
0.0011728
0.00117171
0.000981224
0.000961014
0.000878203
0.000663557
0.000779084
0.00078987
0.00089071
0.00488682
0.00384321
0.00334532
0.00356772
0.00452961
0.0058286
0.00759876
0.0098726
0.0117187
0.0133714
0.0146131
0.0149761
0.0143206
0.0130846
0.012185
0.01125
0.0102454
0.0103813
0.0106018
0.0116871
0.00500784
0.00386319
0.00378715
0.00375918
0.00461362
0.00554696
0.00732412
0.00893709
0.0109334
0.0122743
0.0131328
0.0135406
0.0130297
0.0119228
0.0108729
0.0100406
0.00936714
0.00907131
0.0097141
0.0103212
0.00472489
0.00401984
0.00354136
0.00353173
0.00429277
0.00557245
0.00646619
0.00773705
0.00943843
0.0107228
0.0115952
0.0113944
0.0112087
0.0105059
0.00968939
0.00877573
0.00834655
0.0080069
0.00841496
0.00926895
0.00412769
0.00365116
0.00276885
0.00334731
0.00394457
0.00448096
0.00578512
0.00686024
0.00802067
0.0089355
0.00963571
0.00993746
0.00937511
0.00897064
0.00823734
0.0071144
0.00670619
0.0068108
0.00727235
0.00777906
0.00349518
0.00330715
0.0027472
0.0029525
0.00318022
0.00352451
0.00441237
0.0055877
0.00639045
0.00707568
0.00764267
0.00795917
0.00734969
0.00671389
0.00666963
0.00596768
0.00544406
0.00562185
0.00556817
0.0062987
0.00265034
0.00224196
0.00231776
0.00217198
0.002478
0.00274825
0.0035591
0.00393153
0.00465696
0.00529685
0.00542657
0.00558364
0.00554911
0.00509275
0.00463584
0.00443712
0.00383588
0.00398197
0.00434727
0.00459059
0.00170921
0.001454
0.001409
0.00136531
0.00157953
0.00171885
0.00214042
0.00267029
0.00251891
0.00341128
0.00339813
0.00345146
0.0032687
0.00301756
0.00294296
0.00266552
0.00246103
0.00227915
0.0024327
0.0026269
0.000643743
0.000527759
0.000480008
0.000631553
0.000266134
0.000297537
0.000715775
0.00108868
0.000928028
0.00127157
0.00122337
0.00104769
0.00107733
0.00117036
0.000914294
0.000583241
0.000650153
0.00068433
0.000744788
0.000931313
0.00533905
0.00450763
0.00392757
0.00438965
0.00502851
0.00642836
0.00840791
0.0102893
0.0119644
0.0138786
0.0151093
0.0153691
0.0147167
0.0135003
0.0123812
0.0116617
0.010975
0.0107104
0.0111449
0.0121285
0.00528456
0.00468035
0.00422424
0.00442512
0.00512514
0.00608561
0.00769494
0.00925418
0.0111079
0.012342
0.0131936
0.0136868
0.0133746
0.0125435
0.0111269
0.0102605
0.00982186
0.00974479
0.0101401
0.0110593
0.00516412
0.00471571
0.00426149
0.00412487
0.00474538
0.00560929
0.00694182
0.00836457
0.00966453
0.0108999
0.0117512
0.0121837
0.0115154
0.0106564
0.0099406
0.00902088
0.00843858
0.00852898
0.00897679
0.00954181
0.00435199
0.00411191
0.00380801
0.00382937
0.00430995
0.00496181
0.00608826
0.00721453
0.00808825
0.00923775
0.00993192
0.00997049
0.00954255
0.00888808
0.00831505
0.00747276
0.00734509
0.00702933
0.0071989
0.00797102
0.00389848
0.00341237
0.00317462
0.00346037
0.00350231
0.0041063
0.00483327
0.00582097
0.0065518
0.00749964
0.00790454
0.00808251
0.00770241
0.00716962
0.00646427
0.00604104
0.00561792
0.00552972
0.00588621
0.00628343
0.00286938
0.00264417
0.00250633
0.00245074
0.00268135
0.00300169
0.00359226
0.00420581
0.00484529
0.00522579
0.00575294
0.00592497
0.00529084
0.00507814
0.00478008
0.00453249
0.00418832
0.00411759
0.00425433
0.00449785
0.00150079
0.00154783
0.00126653
0.00128277
0.00173995
0.00191995
0.00204716
0.00237521
0.00285773
0.00325073
0.00353389
0.00344299
0.00365921
0.00324086
0.00285651
0.00269942
0.00256134
0.00245651
0.0025929
0.00252981
0.000696638
0.000237567
0.000454141
0.000544421
0.000382969
0.000776836
0.000725272
0.00102701
0.00101001
0.00102897
0.00129845
0.00108708
0.0013778
0.00109898
0.00111445
0.000750738
0.000964749
0.000964439
0.000815749
0.0010115
0.0057187
0.00497098
0.00460585
0.00466374
0.00564822
0.00652032
0.00822547
0.0104246
0.0122822
0.0138722
0.0147382
0.0149127
0.014531
0.0135523
0.0125844
0.0115955
0.0111475
0.0110771
0.0114934
0.0120519
0.00576252
0.005296
0.00478489
0.0050029
0.00587432
0.00634076
0.00781477
0.00954014
0.01112
0.0124477
0.0134769
0.013337
0.0132523
0.01236
0.0113686
0.0103709
0.00981973
0.00986373
0.0102806
0.0107802
0.00540138
0.00480907
0.00454392
0.00487471
0.00531234
0.00605473
0.00698679
0.00832423
0.00973719
0.0110909
0.011664
0.011614
0.0115313
0.0105168
0.00978534
0.00895173
0.00890651
0.00844845
0.00880668
0.00945554
0.00506694
0.00439702
0.00422198
0.00408038
0.00469752
0.00528681
0.00623955
0.0073015
0.00857619
0.0092584
0.00966935
0.00981999
0.0098526
0.00903215
0.00847569
0.00779985
0.00734957
0.0071136
0.00755897
0.00782749
0.00410934
0.00366477
0.00341945
0.00358078
0.00365063
0.00433683
0.00498455
0.00601367
0.00660252
0.00748837
0.00771028
0.00796374
0.00756744
0.00705275
0.00635461
0.00618917
0.00594842
0.00587991
0.00624952
0.00630455
0.00309069
0.00279122
0.00252223
0.00265151
0.00266156
0.00307132
0.00377818
0.00445616
0.004774
0.00551534
0.00590655
0.00554472
0.00552792
0.00520719
0.0049477
0.00442338
0.00419244
0.00415402
0.00446106
0.00477819
0.00205732
0.00197869
0.00165274
0.00171885
0.00180072
0.00191302
0.00229814
0.00264964
0.00299325
0.00327579
0.00357291
0.00361848
0.00338433
0.00337744
0.00289914
0.00304016
0.00243722
0.00238805
0.00271906
0.00277004
0.000624933
0.000705877
0.000533767
0.000562441
0.00074229
0.000821888
0.000664434
0.00118249
0.000898706
0.00116749
0.00133171
0.00130543
0.00122293
0.00131401
0.000851598
0.00102145
0.000712632
0.000679404
0.00100616
0.000946718
0.00591978
0.00515802
0.00489949
0.00501533
0.00569067
0.00679314
0.00816213
0.0100017
0.0118428
0.0131358
0.0143027
0.0143991
0.0139898
0.0131483
0.0121501
0.0111223
0.0108759
0.0106904
0.0111725
0.0119142
0.00564497
0.00568898
0.00485062
0.00498231
0.00543222
0.00653363
0.00767724
0.00935233
0.0108663
0.011862
0.0124002
0.0130548
0.0127751
0.0119686
0.0108575
0.0102947
0.0097755
0.00988139
0.010233
0.0106448
0.00571239
0.00522726
0.00482454
0.00477691
0.00506629
0.00607012
0.00718051
0.00851434
0.00967719
0.010682
0.0112054
0.0114799
0.0109365
0.010303
0.00964105
0.00917802
0.00852825
0.00831359
0.00890715
0.00951858
0.00488303
0.00462523
0.00405325
0.00426681
0.00467313
0.00539725
0.0062615
0.00714136
0.00782571
0.00879208
0.00953937
0.00978755
0.00944334
0.00896186
0.00815578
0.00751404
0.00740606
0.0073764
0.0076519
0.00806208
0.00427938
0.00382365
0.0037867
0.00352464
0.00397533
0.00433738
0.00509047
0.00572743
0.00653753
0.00718723
0.00772836
0.00775873
0.00740405
0.0068843
0.00636605
0.0060196
0.00579369
0.00562514
0.00604205
0.00633869
0.0032899
0.00297198
0.00287607
0.00259697
0.00300874
0.00308929
0.0037735
0.00402552
0.0046851
0.00511026
0.00555124
0.00552997
0.00558065
0.00499319
0.00466333
0.00461653
0.00439341
0.00414384
0.00427522
0.00465917
0.00189764
0.00180077
0.00177856
0.00168122
0.00176463
0.00203561
0.00224311
0.0025669
0.00292596
0.00312589
0.00316627
0.00350014
0.00332407
0.00313954
0.00295804
0.00263363
0.00258148
0.00265704
0.00260025
0.00271384
0.000587082
0.000692276
0.000528709
0.000240597
0.000454336
0.000412879
0.000750585
0.00081962
0.00107704
0.000908866
0.00116397
0.00122198
0.00120535
0.00118484
0.00108977
0.000973301
0.000823681
0.000986195
0.000891825
0.000882092
0.00583176
0.00503494
0.00465699
0.00502804
0.00551989
0.00646582
0.00768482
0.00970704
0.011143
0.0123914
0.0132165
0.0135665
0.0131453
0.0126217
0.0115547
0.0107528
0.0106563
0.0103385
0.0107782
0.0116447
0.00579098
0.00534096
0.00489622
0.00515539
0.00555458
0.00655073
0.00772527
0.00890415
0.0102057
0.0112989
0.0120283
0.0121362
0.0119027
0.0113817
0.0103252
0.00982136
0.00962213
0.00954154
0.00999335
0.0105634
0.00549308
0.00510341
0.00486525
0.00493908
0.00521667
0.00598964
0.00701904
0.00792249
0.00894271
0.00993371
0.0106566
0.0107039
0.0103133
0.00978648
0.0093014
0.00883458
0.00845635
0.00834418
0.00877364
0.00932511
0.0050784
0.00450313
0.00418259
0.00431099
0.00443397
0.0051404
0.00577793
0.00666969
0.00777523
0.00844788
0.00862398
0.00914265
0.00894852
0.00818199
0.00758796
0.00742621
0.00705925
0.00698729
0.00729448
0.00793048
0.00426423
0.00396699
0.0036328
0.00353735
0.00363493
0.00415862
0.00510216
0.00548425
0.0063194
0.00674441
0.0073279
0.00729219
0.0068854
0.00660417
0.00628577
0.00581295
0.00580609
0.00549611
0.00601415
0.00628419
0.00298483
0.00287948
0.00260514
0.00258264
0.00281781
0.00343685
0.00362418
0.00425949
0.0045914
0.00503985
0.00520511
0.00523449
0.00521132
0.00524092
0.00472201
0.00440893
0.0042223
0.00413724
0.00430597
0.00440322
0.00195129
0.0018715
0.00184045
0.00183921
0.00177872
0.0020596
0.00213988
0.00253884
0.00294517
0.00313454
0.00312405
0.00320905
0.00308479
0.00293
0.00284725
0.00253704
0.00254519
0.00261038
0.0025761
0.00293435
0.000915337
0.000422781
0.000640041
0.000399418
0.000651639
0.000652519
0.000771964
0.000839332
0.00110786
0.00123363
0.00119032
0.00112508
0.000958257
0.000960062
0.000971314
0.000774921
0.000888339
0.000904071
0.000916621
0.000955923
0.00551171
0.00499297
0.00451695
0.004725
0.00527337
0.00598434
0.00752374
0.00858361
0.0100821
0.0111926
0.0118972
0.0120815
0.0121611
0.0112426
0.0105846
0.00993904
0.00942551
0.00969344
0.0101209
0.0108587
0.00564739
0.00525567
0.0048546
0.00470271
0.00501523
0.00571518
0.00693553
0.00814353
0.00927077
0.0101302
0.0109253
0.0112849
0.0107715
0.0104519
0.00941246
0.00934975
0.00891244
0.00882495
0.00921148
0.00996247
0.00543473
0.00476907
0.00464944
0.00485592
0.00511885
0.00559983
0.00633705
0.00746764
0.00806885
0.00907474
0.00948457
0.00982712
0.0095471
0.00926272
0.0085173
0.00829152
0.00792262
0.00781767
0.00809855
0.00878278
0.00508143
0.00438485
0.0042961
0.00442634
0.00443603
0.00492444
0.0056268
0.0064267
0.00726504
0.00786271
0.0082836
0.0081525
0.00805291
0.0076398
0.00703966
0.00669039
0.00647099
0.00680656
0.00690158
0.00751996
0.0038292
0.00379883
0.00354281
0.0035676
0.00361134
0.00413134
0.00451574
0.00524492
0.00561447
0.00611833
0.00643427
0.00672746
0.00643296
0.00617646
0.00593693
0.00549686
0.00532018
0.00551376
0.00531541
0.00587356
0.00315183
0.00312292
0.002901
0.00246848
0.0028642
0.00294563
0.00336172
0.00384342
0.00400653
0.00459478
0.00442979
0.00473479
0.0046299
0.00471111
0.0042372
0.0042146
0.00419907
0.00397619
0.00434103
0.00449889
0.00210308
0.00178944
0.00166599
0.00154962
0.00159691
0.00199473
0.00203897
0.0025971
0.00250114
0.00280766
0.00307567
0.00289014
0.00303572
0.00270838
0.00274045
0.00233778
0.00254913
0.0022435
0.00282691
0.00252659
0.000642868
0.000730611
0.000737592
0.000486893
0.000475208
0.000378391
0.000652065
0.000752134
0.000886295
0.000834512
0.000995171
0.000976824
0.000914494
0.000980312
0.000930475
0.000752436
0.000569818
0.000865324
0.00112096
0.000760371
0.00499086
0.00442651
0.0041026
0.00416641
0.00422539
0.0053275
0.00649728
0.00754666
0.00859168
0.00985816
0.0105262
0.0106266
0.0106624
0.00994571
0.00932391
0.00898725
0.00860663
0.00875192
0.00925549
0.00999398
0.0051638
0.00490041
0.00439128
0.00426729
0.00461593
0.00525168
0.00618204
0.00722908
0.0080606
0.00888832
0.00994643
0.00995551
0.0096018
0.00926284
0.00875985
0.00820505
0.00798795
0.00813808
0.00852368
0.00940714
0.00497199
0.00469158
0.00434991
0.00410314
0.00438877
0.00503869
0.00556231
0.00652393
0.00735291
0.00822158
0.0086855
0.00894199
0.0083207
0.00796324
0.00770553
0.0073482
0.00691006
0.00702933
0.00748109
0.00794496
0.00447265
0.00441447
0.00371818
0.00395849
0.00412668
0.00467824
0.00521121
0.00568352
0.00646686
0.00692485
0.00750033
0.00761774
0.00738426
0.00682008
0.00641324
0.00599793
0.00615358
0.00633811
0.00648944
0.00699347
0.00363829
0.00367102
0.00335709
0.00322769
0.00317107
0.00347358
0.0040406
0.00448207
0.00503091
0.00566127
0.00594917
0.00581661
0.00575457
0.00577716
0.00521401
0.00506175
0.00478626
0.0050654
0.00514534
0.00563497
0.00289992
0.00274556
0.00245253
0.00234377
0.00259396
0.00258009
0.00321107
0.00337708
0.00383881
0.00420297
0.00428987
0.00448336
0.00436743
0.00406588
0.00391882
0.00381937
0.00369182
0.003464
0.00386505
0.00395611
0.00192309
0.00200494
0.00148846
0.0015599
0.00154595
0.00180403
0.00179638
0.00202367
0.00221455
0.00251326
0.00257993
0.00255186
0.00264295
0.00248194
0.00245395
0.00230496
0.00218306
0.00234687
0.00221344
0.00247968
0.000602481
0.000483787
0.000434078
0.000449918
0.000622692
0.000749836
0.000395768
0.000815559
0.000829999
0.000925675
0.00110402
0.00116511
0.000918795
0.00095116
0.000776693
0.00106744
0.000967331
0.000789785
0.000838552
0.000813062
0.00438317
0.00369239
0.0031754
0.00325748
0.00352615
0.00435112
0.00525044
0.00618306
0.00729429
0.00834221
0.00881675
0.00904658
0.00865695
0.00877332
0.00805201
0.00759151
0.00749403
0.0076599
0.00809048
0.00898357
0.00456886
0.00376648
0.00350606
0.00359567
0.00394751
0.00437117
0.00509486
0.00596767
0.00699276
0.00762918
0.00783449
0.00859348
0.00822896
0.00790594
0.00749035
0.00724716
0.00705925
0.00686316
0.00744962
0.00816304
0.00429676
0.00402299
0.00371241
0.00360163
0.00363388
0.00422853
0.00499591
0.00543409
0.00646702
0.00679147
0.00710714
0.00733766
0.00752101
0.0071897
0.00656775
0.00641165
0.00612919
0.00649687
0.00692329
0.00734352
0.00408932
0.00383174
0.00323423
0.00333778
0.00347055
0.00380574
0.00431794
0.00486133
0.00531183
0.00580585
0.00626989
0.00651493
0.00614797
0.00612005
0.00577465
0.00533119
0.00536643
0.00554739
0.00593245
0.00627814
0.00335908