/*--------------------------------*- C++ -*----------------------------------*\
| =========                 |                                                 |
| \\      /  F ield         | OpenFOAM: The Open Source CFD Toolbox           |
|  \\    /   O peration     | Version:  2212                                  |
|   \\  /    A nd           | Website:  www.openfoam.com                      |
|    \\/     M anipulation  |                                                 |
\*---------------------------------------------------------------------------*/
FoamFile
{
    version     2.0;
    format      ascii;
    arch        "LSB;label=32;scalar=64";
    class       volScalarField;
    location    "0";
    object      stateMean;
}
// * * * * * * * * * * * * * * * * * * * * * * * * * * * * * * * * * * * * * //

dimensions      [0 0 0 1 0 0 0];

internalField   nonuniform List<scalar> 
3200
(
352.886
351.625
350.715
350.206
352.672
349.687
349.411
351.428
351.991
352.912
351.648
350.954
350.066
351.004
351.397
348.482
347.649
349.195
352.045
350.462
345.808
344.252
341.195
341.537
342.266
342.038
342.679
343.266
347.29
346.267
346.014
342.977
344.972
341.797
343.51
342.054
343.889
342.517
343.519
343.857
338.425
336.024
337.319
334.772
335.38
336.021
335.95
335.962
336.829
337.314
335.158
339.182
337.924
337.438
335.777
334.113
337.698
337.127
335.771
335.091
330.191
330.289
330.064
328.708
329.186
329.906
330.066
329.371
329.453
329.96
333.245
330.314
330.652
329.305
327.708
331.824
331.093
328.871
328.012
329.926
324.681
323.61
322.507
323.768
322.575
323.471
321.962
322.721
324.448
322.516
323.824
325.016
322.811
323.823
321.696
322.64
323.069
319.668
322.711
325.378
316.115
316.684
316.701
316.05
315.837
318.01
315.217
316.373
318.769
317.199
315.205
316.486
318.082
316.85
317.457
316.824
316.047
314.708
316.736
316.823
310.552
312.083
309.934
309.584
309.319
310.365
309.52
309.08
312.268
309.117
307.488
311.25
311.402
308.131
309.754
307.847
309.125
308.822
312.198
310.643
302.346
303.974
302.674
304.527
303.105
303.491
302.054
303.316
304.872
302.753
303.363
303.089
303.448
303.888
303.225
301.872
302.64
306.749
302.954
301.291
351.091
350.972
348.309
348.905
353.844
350.264
350.502
350.416
351.197
353.124
353.643
352.79
351.572
350.962
351.202
348.958
348.257
349.103
350.836
350.795
344.71
342.587
344.189
343.64
343.154
345.876
344.033
347.712
344.941
347.95
347.806
345.199
347.076
342.822
346.138
343.069
343.6
343.463
342.65
345.274
337.248
334.399
337.221
336.1
335.775
336.993
338.625
338.432
338.336
338.977
334.691
339.281
336.66
338.448
337.138
335.981
335.471
335.666
339.053
337.123
331.062
327.324
329.475
329.623
329.5
329.303
331.901
328.54
331.276
331.826
328.29
331.59
329.54
329.663
330.377
329.409
330.048
329.922
331.051
331.665
324.458
323.136
320.789
322.297
321.45
320.624
324.122
322.776
322.22
325.735
324.518
324.779
324.372
321.441
323.049
322.848
323.082
322.935
323.382
325.361
316.772
313.538
318.407
319.202
314.786
317.164
317.368
317.331
317.344
315.963
318.316
316.446
316.744
318.592
315.73
314.777
315.581
318.035
318.901
313.986
308.625
310.259
309.314
309.74
310.106
309.553
309.419
309.204
309.389
310.133
309.607
308.219
310.594
308.962
312.655
310.2
311.906
310.041
310.135
310.802
304.445
303.023
305.945
304.501
302.025
304.338
304.143
306.085
300.549
303.388
303.608
306.207
303.581
304.231
303.388
303.838
304.984
302.783
302.512
302.254
353.927
350.476
351.475
350.398
351.134
350.139
352.085
349.655
351.629
353.312
353.416
353.253
353.012
352.495
351.407
349.744
349.147
351.974
347.905
349.538
346.544
342.844
343.899
341.854
342.406
343.774
345.272
345.692
344.709
346.651
347.115
347.04
346.108
343.165
341.983
342.388
340.901
343.201
344.16
346.258
337.394
336.57
336.774
335.945
337.765
337.934
338.25
336.893
336.181
339.531
337.654
339.025
339.778
336.124
338.15
336.48
335.243
336.175
337.035
338.685
332.439
328.921
329.293
330.35
328.806
328.751
330.751
330.558
329.818
331.935
330.923
332.05
330.344
331.307
331.172
330.456
328.657
328.241
331.578
328.455
324.214
324.24
321.43
322.943
323.613
321.934
322.073
324.653
324.837
324.462
323.507
324.964
326.164
326.247
323.207
323.978
323.973
322.375
323.114
324.648
318.754
315.068
316.219
315.602
316.641
315.616
317.44
319.695
316.642
315.5
316.712
318.073
319.339
315.995
317.528
317.222
316.487
316.352
317.343
315.545
310.813
308.91
310.575
309.373
310.818
312.929
308.593
308.853
310.028
310.442
310.14
312.097
311.739
309.589
310.389
310.846
310.638
311.371
307.918
312.253
303.968
303.897
303.986
301.833
303.052
302.359
300.842
303.649
303.286
302.223
306.467
303.008
302.078
303.859
303.703
303.498
303.454
301.918
304.182
300.932
352.943
350.676
349.107
349.793
350.528
353.759
352.227
354.418
353.529
352.572
352.091
354.147
354.644
354.463
351.214
352.5
351.985
348.951
351.405
352.497
345.045
343.16
342.229
344.066
341.896
345.969
345.213
347.55
347.654
347.923
348.244
347.865
347.606
344.269
346.858
343.674
344.458
343.637
343.585
345.52
336.994
337.272
338.257
335.575
334.943
337.928
335.412
338.324
341.199
339.193
338.865
339.705
339.23
337.658
339.224
338.502
335.35
334.344
339.581
337.735
331.47
328.68
330.809
330.049
330.266
330.715
330.322
332.367
330.632
330.792
332.294
332.311
333.043
331.98
329.732
330.362
330.667
328.798
330.568
331.862
324.954
322.743
324.448
323.66
324.912
324.928
324.033
322.202
323.605
326.246
325.36
324.135
324.705
324.783
325.023
326.146
322.757
321.649
323.488
322.741
317.082
316.287
317.565
315.039
318.85
315.826
319.714
315.958
317.733
317.701
319.047
318.276
316.287
317.16
316.174
316.48
318.228
317.604
316.603
317.174
312.435
310.289
311.697
308.935
309.797
310.827
310.736
311.79
311.702
312.674
308.825
309.898
308.745
311.843
309.054
311.193
311.228
310.087
311.822
308.654
303.515
301.68
302.168
301.707
306.776
302.972
301.075
304.548
304.953
305.593
302.689
303.754
301.256
303.934
302.395
303.156
303.02
301.868
303.124
303.383
353.462
352.914
352.264
350.866
349.763
352.641
354.796
355.011
355.926
356.432
355.967
352.502
356.16
353.021
354.53
353.386
352.561
353.644
351.352
353.747
345.748
343.845
345.634
343.04
344.041
345.468
346.753
347.337
347.641
345.613
347.165
347.935
348.207
346.472
346.058
343.685
344.576
343.774
346.748
348.255
339.151
336.245
336.827
338.383
337.671
339.629
339.679
339.893
340.344
339.187
342.244
338.577
339.851
339.982
337.752
338.609
337.411
337.85
337.427
338.566
332.449
331.52
329.619
330.943
328.276
333.518
332.599
332.288
332.161
331.372
333.517
334.594
333.582
331.2
334.015
331.586
331.875
331.03
332.518
332.303
324.972
324.705
324.771
322.979
322.581
324.832
323.995
323.7
325.75
324.893
325.988
326.166
325.712
324.984
323.018
326.578
325.276
323.117
322.608
327.056
318.355
317.682
316.285
316.651
314.851
317.704
318.818
319.112
316.524
318.878
319.177
320.866
316.911
318.356
317.385
315.774
315.65
317.901
317.605
318.913
310.241
310.188
308.355
309.785
307.82
310.195
310.368
312.041
310.993
312.768
312.949
311.285
311.251
311.41
309.379
309.909
308.839
310.876
310.974
310.6
304.859
303.348
301.395
304.306
304.248
304.465
304.278
302.466
303.005
304.721
304.553
304.751
303.528
302.801
303.049
301.529
304.541
303.245
303.032
306.252
355.199
351.871
354.087
350.975
354.057
353.243
354.603
353.57
355.301
356.562
356.127
357.448
355.797
355.231
353.95
353.97
353.933
354.348
352.788
353.113
344.502
343.872
344.618
345.492
344.983
346.401
348.431
348.234
348.868
348.532
348.941
347.039
348.31
348.182
347.194
345.637
345.67
345.609
344.184
349.716
340.696
339.133
340.332
339.716
337.635
340.283
336.656
337.566
337.691
340.967
340.274
340.385
342.23
340.774
339.065
339.806
337.384
338.105
338.347
338.207
333.795
331.763
330.04
329.633
330.442
331.904
330.694
332.829
335.423
334.685
331.788
332.496
331.69
331.923
331.993
331.543
332.469
331.106
330.887
331.939
324.846
325.86
322.784
324.619
322.518
325.014
326.424
325.233
325.332
326.631
328.348
326.981
328.997
327.564
326.053
327.585
324.175
323.615
322.945
325.306
317.804
315.889
318.223
316.987
318.173
316.314
318.011
319.44
320.837
319.512
322.101
318.996
317.839
317.563
319.593
318.459
318.458
318.355
318.004
318.21
309.726
311.061
308.508
307.907
311.229
310.996
309.087
311.832
312.555
312.937
311.929
312.378
312.051
311.048
308.947
311.445
308.852
309.371
309.562
310.57
303.355
302.119
303.939
304.286
303.088
303.387
303.27
306.234
304.918
306.289
303.889
302.837
301.783
303.745
303.356
302.723
303.528
304.109
304.317
303.46
358.236
351.199
355.551
353.755
352.969
355.327
353.995
359.163
357.64
360.18
357.317
360.586
357.419
355.596
356.72
355.61
356.324
356.535
352.86
354.409
348.951
347.69
348.096
346.367
347.775
348.752
349.82
349.345
349.546
349.406
350.836
349.961
348.499
348.721
350.997
347.742
343.325
348.392
348.02
347.906
341.491
341.224
338.134
340.134
339.083
339.097
341.514
340.439
342.004
341.122
341.465
341.887
342.695
340.776
338.896
342.261
338.481
338.565
336.635
339.237
332.125
333.12
331.851
334.694
334.595
332.611
332.531
331.993
333.618
333.985
334.816
334.938
334.075
335.782
334.807
331.156
331.223
330.506
331.623
334.639
328.162
323.614
324.8
324.658
323.536
325.233
327.715
325.819
326.938
328.266
328.784
325.602
325.047
325.777
326.238
324.588
327.405
323.324
325.98
325.179
318.406
317.947
316.036
318.318
318.855
318.696
315.975
319.652
318.153
320.087
320.868
321.583
317.719
318.706
317.728
319.693
319.305
316.504
319.004
318.407
311.405
310.548
308.829
310.019
312.091
308.62
310.516
310.065
309.146
312.942
312.602
312.617
313.782
310.176
311.744
312.453
313.592
312.602
311.409
310.916
303.604
302.893
301.355
303.775
305.001
305.346
301.793
304.487
303.84
302.712
303.947
304.635
303.72
304.733
302.461
303.353
302.709
303.671
303.737
303.653
357.463
356.128
357.501
355.504
357.147
357.651
358.218
359.255
358.068
358.704
360.109
361.751
358.638
358.359
355.637
355.97
357.105
356.802
357.462
356.329
349.378
345.718
347.838
347.138
348.324
349.213
350.449
350.514
350.891
350.474
349.949
352.356
350.174
349.309
348.401
347.911
347.122
349.376
346.583
350.617
341.402
341.218
340.986
339.344
339.457
341.049
340.658
341.9
343.867
343.058
342.71
343.239
341.935
341.916
341.768
341.216
341.737
343.059
338.296
339.792
334.794
332.677
333.303
331.583
332.427
331.371
333.947
336.343
335.542
334.043
334.858
336.77
334.539
336.702
334.94
332.858
333.976
333.62
332.084
332.6
327.18
323.871
325.616
325.983
327.039
324.279
326.9
327.403
328.121
327.313
326.24
327.661
327.352
325.186
326.983
324.768
324.483
324.41
327.355
325.909
319.493
320.125
318.963
319.279
317.797
321.212
320.04
319.016
320.507
319.599
322.135
320.433
320.447
319.427
318.124
320.443
318.356
318.415
319.203
316.165
313.498
312.331
312.946
310.577
311.379
312.713
309.231
312.259
313.368
312.331
312.29
311.768
308.888
313.436
309.518
309.362
310.797
310.428
310.601
310.606
302.749
302.45
303.69
302.987
303.114
304.091
303.251
303.179
303.255
303.051
303.829
304.067
302.609
305.198
305.399
304.95
302.641
302.467
305.846
303.964
355.942
356.038
356.458
356.244
358.496
357.91
357.208
359.789
358.345
361.93
361.237
362.111
361.32
361.775
361.543
356.905
359.753
358.632
357.456
358.167
352.501
348.702
349.641
348.061
349.148
351.987
348.823
350.653
350.325
353.295
355.089
354.989
351.919
353.389
350.508
348.812
347.57
349.975
351.081
348.645
344.86
342.364
342.764
341.525
342.075
341.571
342.107
343.746
344.886
344.198
345.627
342.613
345.803
342.558
343.64
343.492
342.337
341.017
342.58
343.847
334.288
335.217
334.749
332.668
332.282
332.429
334.647
335.627
334.983
335.887
336.333
336.632
335.676
335.139
337.212
333.825
333.704
335.818
334.416
336.805
329.28
325.741
326.838
327.049
327.564
328.312
326.325
327.594
329.687
329.396
329.562
327.488
327.618
328.618
324.997
325.995
326.485
328.603
327.63
326.053
320.08
318.174
318.745
318.81
318.906
318.295
319.17
318.1
320.158
318.671
320.099
322.909
320.281
319.67
318.404
319.733
320.258
320.357
318.351
318.537
310.987
312.299
311.635
311.86
310.969
313.131
312.512
313.178
313.075
312.175
312.193
312.761
313.218
312.433
314.691
311.357
312.87
311.305
311.485
312.236
303.19
301.464
304.583
303.8
303.695
304.312
303.075
302.992
304.187
304.111
303.914
302.105
303.488
302.689
302.061
303.814
304.511
306.389
303.846
302.077
359.868
358.324
356.626
360.269
359.236
357.861
361.277
360.531
360.083
362.624
361.824
364.782
362.395
362.194
360.267
359.927
358.118
358.216
361.683
359.047
352.013
348.351
348.687
349.811
349.471
351.199
354.546
351.106
354.156
352.144
351.832
353.934
351.511
353.724
350.352
352.3
349.759
350.924
347.924
350.989
343.977
339.204
341.561
341.933
342.061
344.156
343.949
343.974
348.596
344.606
343.265
346.149
343.627
344.465
342.646
343.648
342.77
342.565
342.677
343.479
333.65
334.903
335.058
335.16
337.349
334.869
336.109
338.326
336.392
337.736
337.71
335.536
336.728
336.851
336.027
335.337
333.953
336.307
333.796
335.605
329.565
330.21
327.778
328.898
327.003
327.277
327.766
329.97
330.435
329.328
329.323
327.32
329.023
328.217
326.38
326.422
327.728
325.859
328.468
327.989
320.393
319.706
320.047
319.402
320.088
318.441
317.706
321.202
320.748
320.26
320.431
322.823
321.112
319.663
319.166
320.406
318.08
319.881
319.072
319.568
309.757
311.61
310.142
312.023
311.816
312.073
314.086
312.154
312.209
311.424
311.068
310.693
312.613
311.009
312.232
310.42
310.535
313.038
311.339
311.784
303.938
301.721
303.717
306.273
304.28
303.376
301.024
304.196
303.9
303.61
303.884
303.303
306.316
302.328
303.176
304.336
305.521
302.094
304.933
303.592
364.193
360.5
361.305
361.742
358.383
360.405
363.056
363.58
363.319
365.973
365.227
362.763
363.266
363.209
361.491
360.694
362.295
362.145
360.02
362.346
351.709
349.528
351.738
350.777
352.483
351.864
351.34
352.741
355.812
353.032
352.678
356.019
352.945
353.747
351.276
353.622
350.782
352.918
350.404
352.494
345.335
342.093
343.521
342.968
342.824
343.239
344.965
346.756
345.331
346.722
347.854
347.429
345.275
346.408
344.55
344.985
343.897
345.677
345.553
344.57
336.66
334.384
336.279
334.81
334.257
336.868
336.456
336.359
336.563
337.392
338.542
336.417
335.963
338.565
337.174
335.752
335.299
336.796
338.209
336.483
326.592
328.152
326.969
327.475
327.994
329.234
328.334
327.288
328.844
331.542
328.709
331.227
328.874
330.976
327.792
326.308
327.388
329.063
329.047
328.819
322.148
319.969
322.831
321.002
317.296
320.756
319.216
320.4
319.949
320.882
322.972
320.24
321.751
319.965
319.878
320.075
317.54
319.913
319.564
320.359
311.669
310.315
312.45
310.715
311.468
312.41
312.52
310.336
313.119
311.522
309.909
312.758
311.588
312.918
311.479
311.679
309.914
310.81
310.535
310.919
304.655
301.643
303.576
304.564
304.433
303.624
303.072
305.54
303.148
305.658
303.382
302.259
303.616
301.759
306.041
305.413
304.805
305.051
305.187
306.296
362.775
363.952
361.815
359.803
360.977
362.884
363.015
360.934
362.937
365.698
365.122
365.159
364.359
362.395
362.648
362.53
360.771
360.839
362.275
366.008
354.693
356.04
353.691
351.914
350.426
354.842
354.025
353.879
355.439
354.359
355.592
356.256
357.075
355.288
356.259
353.201
354.529
353.724
353.805
357.276
346.568
346.571
344.678
344.704
343.604
345.742
345.002
345.973
346.612
348.739
348.511
348.581
347.179
348.016
347.853
345.846
347.48
344.385
346.714
347.032
338.394
337.116
335.671
336.303
337.477
337.869
336.269
337.755
335.286
338.397
338.457
338.774
337.292
338.351
338.882
337.073
336.579
337.808
335.86
338.252
329.87
329.438
328.048
328.21
329.725
326.225
329.041
328.659
331.418
329.479
331.642
330.411
330.55
327.57
326.929
328.874
328.914
328.414
328.071
331.071
319.701
320.851
317.978
321.46
320.988
319.334
321.132
318.789
322.239
321.836
320.114
320.759
323.381
323.357
322.121
320.105
321.198
321.679
319.157
320.149
313.806
310.874
311.781
311.134
313.564
311.882
311.539
313.893
311.646
313.167
311.998
311.711
314.794
311.937
311.45
311.449
310.455
310.351
310.757
312.417
304.503
303.807
303.244
303.102
304.869
303.79
304.553
304.788
304.706
303.984
305.13
305.215
304.41
305.632
304.368
305.294
303.074
304.022
303.406
303.424
365.97
364.96
364.614
364.408
364.179
365.458
364.597
364.712
366.272
365.634
367.855
366.911
364.647
365.761
367.216
362.654
362.51
363.912
363.288
363.991
356.943
353.25
355.971
353.09
354.823
354.074
355.991
355.526
356.639
355.908
355.65
357.652
355.074
357.65
354.486
355.344
353.401
354.396
352.493
356.582
349.202
348.36
343.962
347.877
347.062
346.242
345.256
348.376
347.976
348.257
348.136
346.598
348.614
346.648
347.78
348.329
348.672
345.41
347.963
347.379
341.407
338.74
337.341
338.852
337.378
339.132
340.045
338.528
340.52
339.621
340.611
339.735
340.037
336.296
338.132
337.431
338.461
336.58
339.125
339.496
328.427
324.93
330.284
330.153
329.215
328.574
329.803
328.978
329.173
330.355
331.27
331.048
331.395
332.538
330.359
330.269
327.491
328.401
329.826
330.312
322.408
318.282
320.303
320.447
321.076
323.792
322.904
319.043
321.192
320.478
321.54
323.803
319.446
319.766
320.563
319.664
322.982
322.504
321.199
321.254
314.394
314.798
312.082
312.366
310.987
311.717
311.628
315.034
313.502
312.436
312.484
312.474
314.876
314.038
316.306
311.16
313.497
313.412
313.335
311.459
305.38
303.18
303.6
303.359
302.612
303.619
303.751
303.04
302.693
304.518
303.463
303.331
304.835
303.11
304.489
305.44
306.416
304.294
304.3
303.818
367.656
367.782
362.337
365.188
366.035
366.796
365.209
366.595
366.482
368.298
369.07
369.701
367.506
366.115
368.791
363.357
368.352
368.114
368.151
365.291
358.427
357.303
357.034
356.292
356.001
358.238
357.796
358.209
360.466
359.93
358.822
358.711
358.67
357.235
357.129
357.761
357.238
356.216
357.13
358.839
347.46
348.943
346.848
347.549
347.074
347.934
348.547
349.033
348.355
348.082
349.222
350.672
349.179
346.742
346.768
346.878
345.511
348.734
349.259
350.061
341.617
337.37
337.649
339.216
338.693
338.62
338.803
339.432
339.247
341.736
339.595
339.85
342.116
337.923
340.88
342.605
341.363
339.854
338.85
339.41
334.332
328.338
326.644
328.486
331.179
328.987
329.643
331.569
332.874
329.797
332.109
330.534
333.65
329.833
331.251
330.491
333.863
330.88
328.405
333.489
320.067
323.403
320.112
319.633
322.072
319.83
323.096
323.271
324.062
322.509
323.809
322.856
321.596
321.746
319.518
321.891
321.691
321.556
322.935
321.936
311.329
315.636
311.592
311.097
316.629
314.218
313.162
315.307
313.025
314.529
314.19
314.417
314.29
310.987
312.563
313.844
313.24
312.509
311.716
313.102
306.646
304.389
304.275
302.829
304.159
303.334
305.606
304.508
304.048
306.93
303.39
306.507
305.055
303.459
303.604
302.742
306.117
308.791
302.247
301.308
367.137
369.47
367.98
366.467
368.539
365.528
367.863
366.264
368.435
368.48
370.138
369.977
369.36
369.275
367.769
365.986
366.797
367.961
369.118
368.649
359.528
356.9
356.609
357.284
358.967
358.079
358.347
359.382
359.807
359.05
359.236
360.591
358.265
359.941
357.334
357.905
357.468
358.657
356.972
360.224
350.03
351.383
347.545
346.819
349.68
347.637
348.844
351.307
349.193
348.639
348.017
351.117
351.124
351.129
349.856
350.474
350.726
348.19
350.831
352.321
340.625
340.095
340.142
340.935
337.915
340.026
339.563
339.243
341.137
341.268
340.658
342.279
339.717
340.402
339.503
339.443
340.591
338.88
342.127
340.333
332.728
331.43
331.494
329.485
330.559
329.885
330.797
331.522
330.361
330.75
331.898
331.771
332.055
330.941
330.645
331.875
327.787
334.05
332.407
330.286
321.684
323.051
321.651
323.278
321.508
322.945
323.511
323.086
322.087
322.75
321.754
321.957
320.694
322.371
320.896
320.803
321.733
322.294
320.689
322.027
314.439
313.662
314.249
313.575
312.132
312.748
315.206
313.975
312.195
315.961
314.568
311.229
310.744
313.536
314.88
312.753
312.378
311.682
315.255
312.782
303.454
301.711
302.658
304.556
303.333
306.169
303.9
306.039
303.266
304.583
304.381
304.304
304.358
302.323
302.601
308.266
304.136
304.375
303.342
306.535
370.299
370.893
367.738
369.941
370.407
368.291
370.003
367.632
367.734
370.282
371.004
369.87
368.966
368.056
370.127
369.75
366.802
368.254
371.427
370.66
362.035
360.213
360.31
357.809
359.416
358.339
361.382
361.306
361.203
360.261
360.016
361.97
361.053
359.315
359.628
360.75
357.463
359.786
360.437
359.336
352.951
349.014
350.922
348.614
349.12
352.253
349.377
348.366
351.118
351.978
349.744
351.439
350.18
349.969
350.75
350.601
350.186
350.381
353.414
351.667
340.127
341.611
340.278
340.006
339.245
341.875
342.355
341.532
343.78
340.772
342.398
343.697
340.733
339.009
341.261
340.029
341.899
340.144
339.565
341.84
333.255
332.387
332.564
331.018
330.972
329.886
333.01
331.051
332.987
332.896
332.099
331.372
331.417
332.026
330.371
332.104
330.627
332.517
332.595
331.889
323.15
324.009
322.632
322.174
322.6
321.031
324.244
322.782
323.649
324.64
322.796
323.745
323.98
320.864
323.458
321.898
323.5
322.891
321.056
321.372
313.909
311.853
311.41
314.02
312.587
314.212
313.305
312.582
314.712
313.615
314.215
315.057
314.526
315.499
312.999
313.191
313.609
315.582
312.609
314.199
304.716
305.312
305.196
304.261
304.105
303.299
305.263
305.315
304.333
302.925
303.615
304.467
304.069
305.267
306.782
304.995
302.89
302.963
304.582
303.924
373.134
370.92
371.029
369.756
370.526
368.998
370.941
370.082
370.584
372.779
372.002
371.106
370.206
372.7
371.065
370.645
371.152
370.354
371.207
370.417
364.093
361.325
358.775
361.231
359.915
362.355
359.414
363.155
361.199
362.539
363.685
360.684
362.95
360.456
362.224
359.916
361.972
360.215
361.429
360.463
353.646
351.651
354.661
352.803
350.952
352.668
350.336
351.369
352.881
350.643
353.267
352.291
353.622
350.847
348.583
350.227
348.314
349.795
352.213
350.737
340.693
343.347
343.56
340.71
342.059
338.188
340.81
341.222
341.186
341.508
344.005
344.083
342.295
342.51
340.452
342.447
340.858
341.705
342.35
342.487
333.232
333.735
331.665
331.443
331.689
333.483
334.169
333.01
333.091
332.03
333.218
332.232
333.069
332.368
332.559
332.103
331.604
333.453
333.159
331.085
322.803
322.305
322.634
322.444
323.33
323.495
324.802
323.695
321.306
323.72
323.961
322.918
323.527
322.553
322.883
323.452
322.433
322.596
323.858
322.364
314.579
315.202
311.583
313.061
314.443
317.208
311.73
316.065
315.008
314.822
314.748
313.029
313.823
313.363
314.243
313.812
314.457
315.636
312.633
313.321
303.177
303.758
302.472
303.648
305.127
307.111
303.551
305.401
306.807
303.559
304.132
306.944
306.239
306.222
306.212
304.175
304.116
304.755
303.719
306.153
374.685
374.765
374.675
371.913
371.686
371.179
372.091
372.168
374.644
374.287
373.568
372.854
369.947
374.448
371.108
372.629
371.849
370.949
371.893
375.304
363.342
362.262
364.906
363.603
360.545
361.903
361.271
363.105
361.567
360.83
362.498
361.56
361.891
362.331
363.574
363.845
363.495
362.821
362.751
362.699
353.518
351.707
354.233
354.282
352.442
352.35
354.159
353.069
353.063
353.85
351.753
353.568
350.68
352.99
353.247
350.337
351.674
352.976
351.13
353.801
343.613
343.605
342.535
340.657
342.272
343.38
342.398
342.254
342.097
343.037
344.583
342.24
343.945
342.593
339.78
342.717
341.134
341.023
342.276
342.063
334.069
332.473
331.931
332.961
335.714
331.879
333.566
333.502
331.679
332.154
334.841
332.131
332.656
334.902
330.565
333.219
335.11
333.569
334.265
334.872
323.777
323.656
326.638
324.925
324.153
323.332
320.153
322.022
324.756
323.077
325
325.964
325.328
322.062
325.28
323.557
324.697
323.949
322.201
326.808
314.143
315.236
314.464
314.419
312.827
313.549
313.596
313.522
316.122
314.322
314.84
314.726
314.675
312.556
316.562
313.852
314.173
313.505
317.527
316.512
304.276
303.038
303.764
304.499
303.035
304.39
305
306.922
305.445
304.953
306.599
304.311
307.543
304.385
305.248
303.054
302.915
304.146
304.278
304.074
377.542
375.784
376.668
374.404
372.061
376.47
371.395
373.538
373.816
375.251
374.942
372.291
370.896
375.952
375.374
374.382
373.107
374.126
374.132
377.079
365.929
365.681
364.355
365.923
364.485
366.151
363.33
366.947
363.385
367.586
367.029
363.743
367.297
361.974
367.02
363.566
365.843
363.437
365.793
367.716
357.721
354.316
353.636
355.44
351.304
354.635
353.515
354.639
353.394
354.662
354.491
352.413
355.817
354.453
356.376
352.254
351.81
353.006
355.692
354.065
344.976
344.616
343.571
341.738
341.891
343.751
343.121
342.639
342.683
344.128
345.177
343.461
345.973
343.055
344.481
345.044
338.817
342.453
343.846
341.926
337.445
333.737
335.732
334.991
331.662
334.678
333.18
333.964
335.84
334.228
332.554
332.328
332.286
335.831
334.26
334.201
333.91
334.613
333.15
334.987
326.253
323.95
323.846
323.704
323.06
324.09
322.343
325.518
324.753
324.569
325.354
324.452
322.434
323.718
326.421
325.301
324.591
325.646
322.872
323.391
313.675
314.181
316.054
313.787
315.326
312.726
315.338
312.895
314.291
315.052
313.659
314.169
315.771
315.869
313.487
315.457
313.848
315.451
314.131
315.801
306.266
304.667
307.385
302.876
305.539
304.594
305.882
304.147
303.517
306.221
303.969
303.83
305.949
304.887
306.516
304.663
303.94
301.858
306.105
306.665
377.856
378.228
376.818
375.556
374.509
375.075
375.102
376.301
375.115
373.137
376.454
374.129
376.715
375.186
375.281
373.364
371.77
375.353
377.273
376.681
365.848
365.186
366.074
365.788
364.425
364.476
363.884
366.597
363.202
364.394
364.38
362.822
364.809
363.502
363.86
363.209
365.279
364.277
366.135
365.41
357.6
356.488
354.583
355.158
353.612
355.625
351.787
351.415
352.675
357.018
354.214
353.25
354.74
355.157
351.528
351.661
351.995
354.931
354.303
357.47
344.355
344.748
344.552
346.646
343.321
342.962
343.357
343.722
343.341
343.917
344.77
344.912
343.732
345.004
344.532
343.389
343.841
344.827
345.761
345.578
334.602
335.274
334.533
333.192
334.271
334.37
335.495
335.392
334.293
336.015
334.549
333.741
334.4
335.692
333.675
335.05
332.836
335.449
335.286
335.244
326.303
324.322
323.821
324.857
326.216
326.175
327.405
325.308
324.406
323.573
325.683
324.483
325.057
321.558
324.88
325.307
326.374
324.258
324.882
323.837
314.852
315.792
317.425
315.177
312.462
315.566
314.496
314.246
315.249
311.756
314.668
314.515
316.532
313.278
314.475
317.386
313.981
314.893
315.334
315.37
306.279
302.241
302.58
305.812
303.599
304.001
305.517
303.223
304.88
304.887
306.723
306.221
305.676
304.726
305.467
304.127
305.211
304.08
303.879
305.88
)
;

boundaryField
{
    hotSide
    {
        type            fixedGradient;
        gradient        nonuniform List<scalar> 
400
(
321.511
322.87
325.591
329.677
335.133
341.965
350.181
359.788
370.794
383.208
397.037
412.289
428.971
447.088
466.647
487.651
510.105
534.011
559.372
586.191
323.738
325.08
327.767
331.802
337.194
343.949
352.078
361.591
372.498
384.81
398.537
413.687
430.268
448.289
467.755
488.672
511.043
534.872
560.161
586.913
326.149
327.47
330.116
334.091
339.406
346.071
354.099
363.503
374.296
386.491
400.101
415.136
431.606
449.52
468.885
489.706
511.988
535.735
560.948
587.63
328.704
330
332.597
336.503
341.73
348.292
356.205
365.485
376.15
388.215
401.695
416.604
432.954
450.753
470.009
490.73
512.919
536.579
561.714
588.325
331.33
332.599
335.142
338.97
344.099
350.546
358.332
367.477
378.003
389.928
403.271
418.047
434.27
451.949
471.095
491.712
513.807
537.382
562.439
588.978
333.918
335.158
337.643
341.389
346.414
352.74
360.392
369.397
379.779
391.562
404.765
419.407
435.503
453.065
472.101
492.618
514.622
538.114
563.096
589.569
336.321
337.531
339.959
343.622
348.544
354.751
362.274
371.142
381.385
393.031
406.101
420.618
436.595
454.047
472.983
493.409
515.33
538.747
563.663
590.076
338.36
339.543
341.92
345.509
350.339
356.44
363.847
372.595
382.718
394.244
407.2
421.608
437.485
454.844
473.695
494.045
515.897
539.253
564.114
590.478
339.852
341.015
343.352
346.885
351.645
357.665
364.985
373.643
383.675
395.113
407.984
422.312
438.116
455.407
474.197
494.491
516.294
539.606
564.428
590.758
340.643
341.795
344.11
347.613
352.334
358.311
365.584
374.193
384.176
395.567
408.393
422.679
438.443
455.699
474.456
494.722
516.498
539.788
564.589
590.901
340.643
341.795
344.11
347.613
352.334
358.311
365.584
374.193
384.176
395.567
408.393
422.679
438.443
455.699
474.456
494.722
516.498
539.788
564.589
590.901
339.852
341.015
343.352
346.885
351.645
357.665
364.985
373.643
383.675
395.113
407.984
422.312
438.116
455.407
474.197
494.491
516.294
539.606
564.428
590.758
338.36
339.543
341.92
345.509
350.339
356.44
363.847
372.595
382.718
394.244
407.2
421.608
437.485
454.844
473.695
494.045
515.897
539.253
564.114
590.478
336.321
337.531
339.959
343.622
348.544
354.751
362.274
371.142
381.385
393.031
406.101
420.618
436.595
454.047
472.983
493.409
515.33
538.747
563.663
590.076
333.918
335.158
337.643
341.389
346.414
352.74
360.392
369.397
379.779
391.562
404.765
419.407
435.503
453.065
472.101
492.618
514.622
538.114
563.096
589.569
331.33
332.599
335.142
338.97
344.099
350.546
358.332
367.477
378.003
389.928
403.271
418.047
434.27
451.949
471.095
491.712
513.807
537.382
562.439
588.978
328.704
330
332.597
336.503
341.73
348.292
356.205
365.485
376.15
388.215
401.695
416.604
432.954
450.753
470.009
490.73
512.919
536.579
561.714
588.325
326.149
327.47
330.116
334.091
339.406
346.071
354.099
363.503
374.296
386.491
400.101
415.136
431.606
449.52
468.885
489.706
511.988
535.735
560.948
587.63
323.738
325.08
327.767
331.802
337.194
343.949
352.078
361.591
372.498
384.81
398.537
413.687
430.268
448.289
467.755
488.672
511.043
534.872
560.161
586.913
321.511
322.87
325.591
329.677
335.133
341.965
350.181
359.788
370.794
383.208
397.037
412.289
428.971
447.088
466.647
487.651
510.105
534.011
559.372
586.191
)
;
    }
    coldSide
    {
        type            mixed;
        refValue        uniform 300;
        refGradient     uniform 0;
        valueFraction   uniform 0.991591;
        source          uniform 0;
        value           nonuniform List<scalar> 
400
(
300.02
300.037
300.033
300.03
300.041
300.028
300.03
300.023
300.027
300.033
300.039
300.038
300.045
300.056
300.029
300.04
300.027
300.036
300.053
300.053
300.033
300.025
300.033
300.014
300.028
300.018
300.024
300.021
300.012
300.014
300.014
300.032
300.027
300.037
300.014
300.045
300.032
300.026