/*--------------------------------*- C++ -*----------------------------------*\
| =========                 |                                                 |
| \\      /  F ield         | OpenFOAM: The Open Source CFD Toolbox           |
|  \\    /   O peration     | Version:  2212                                  |
|   \\  /    A nd           | Website:  www.openfoam.com                      |
|    \\/     M anipulation  |                                                 |
\*---------------------------------------------------------------------------*/
FoamFile
{
    version     2.0;
    format      ascii;
    arch        "LSB;label=32;scalar=64";
    class       volScalarField;
    location    "0";
    object      T;
}
// * * * * * * * * * * * * * * * * * * * * * * * * * * * * * * * * * * * * * //

dimensions      [0 0 0 1 0 0 0];

internalField   nonuniform List<scalar> 
3200
(
322.247
322.566
322.96
323.273
323.856
323.741
323.869
323.96
324.225
324.33
324.19
323.919
323.67
323.62
323.302
322.815
322.506
321.844
321.642
321.345
319.304
319.576
319.913
320.157
320.725
320.595
320.7
320.793
321.044
321.146
320.986
320.772
320.551
320.54
320.254
319.807
319.524
318.942
318.759
318.522
316.33
316.592
316.836
317.015
317.571
317.421
317.499
317.582
317.819
317.921
317.758
317.555
317.462
317.458
317.153
316.825
316.533
316.067
315.913
315.696
313.382
313.571
313.821
313.888
314.342
314.239
314.332
314.418
314.605
314.685
314.494
314.404
314.351
314.335
314.07
313.783
313.552
313.196
313.018
312.817
310.427
310.549
310.772
310.819
311.138
311.1
311.159
311.201
311.346
311.431
311.277
311.185
311.217
311.169
310.972
310.71
310.57
310.34
310.138
309.978
307.44
307.512
307.728
307.761
307.953
307.953
307.958
308.018
308.086
308.132
308.047
307.979
307.998
307.981
307.861
307.635
307.566
307.416
307.247
307.119
304.454
304.535
304.632
304.701
304.801
304.762
304.765
304.812
304.855
304.88
304.841
304.799
304.784
304.784
304.73
304.597
304.535
304.478
304.365
304.284
301.494
301.529
301.549
301.605
301.612
301.593
301.576
301.61
301.629
301.625
301.598
301.604
301.592
301.599
301.572
301.534
301.533
301.487
301.469
301.432
322.711
323.208
323.586
323.888
324.531
324.424
324.714
324.849
325.252
324.94
324.989
324.692
324.366
324.259
323.844
323.407
323.407
322.829
322.347
322.151
319.657
320.14
320.425
320.633
321.271
321.105
321.421
321.56
321.891
321.55
321.646
321.356
321.114
321.042
320.658
320.317
320.291
319.728
319.388
319.176
316.653
317.05
317.307
317.395
318.006
317.829
318.158
318.261
318.518
318.235
318.323
318.051
317.897
317.784
317.468
317.251
317.202
316.654
316.413
316.209
313.637
313.977
314.171
314.193
314.743
314.568
314.872
314.915
315.11
314.929
315.011
314.755
314.662
314.574
314.299
314.139
314.049
313.626
313.405
313.237
310.647
310.91
311.017
311.039
311.491
311.29
311.549
311.585
311.737
311.59
311.704
311.446
311.419
311.356
311.134
311.012
310.903
310.612
310.44
310.262
307.624
307.811
307.875
307.896
308.182
308.089
308.248
308.295
308.349
308.255
308.379
308.15
308.154
308.114
307.978
307.875
307.782
307.537
307.463
307.274
304.607
304.694
304.741
304.75
304.883
304.844
304.949
305.004
305.033
304.938
305.049
304.888
304.889
304.888
304.782
304.72
304.694
304.522
304.458
304.377
301.546
301.586
301.586
301.602
301.619
301.624
301.67
301.693
301.682
301.649
301.687
301.632
301.647
301.64
301.587
301.575
301.581
301.521
301.492
301.476
323.445
324.035
324.608
325.002
325.221
325.455
325.769
325.779
326.158
325.973
325.978
325.78
325.397
325.372
325.025
324.712
324.316
323.905
323.436
322.828
320.292
320.839
321.296
321.619
321.842
321.995
322.307
322.304
322.649
322.44
322.521
322.286
321.981
321.986
321.636
321.447
321.028
320.687
320.28
319.802
317.207
317.615
317.99
318.271
318.493
318.54
318.863
318.827
319.145
318.957
319.033
318.816
318.608
318.562
318.283
318.158
317.778
317.52
317.193
316.803
314.093
314.396
314.678
314.959
315.104
315.12
315.448
315.371
315.632
315.506
315.579
315.359
315.251
315.205
314.959
314.894
314.536
314.342
314.027
313.759
310.982
311.233
311.385
311.647
311.732
311.784
312.002
311.941
312.158
312.038
312.132
311.92
311.933
311.85
311.618
311.585
311.281
311.188
310.927
310.715
307.84
308.038
308.125
308.326
308.357
308.433
308.596
308.54
308.735
308.564
308.66
308.537
308.546
308.484
308.296
308.296
308.024
307.99
307.854
307.651
304.7
304.832
304.876
304.999
305.029
305.081
305.158
305.111
305.252
305.116
305.175
305.146
305.167
305.107
304.983
304.978
304.815
304.768
304.723
304.586
301.57
301.632
301.648
301.673
301.683
301.69
301.738
301.71
301.755
301.708
301.718
301.725
301.731
301.698
301.658
301.696
301.611
301.587
301.556
301.544
324.689
324.986
325.709
326.01
326.239
326.589
326.752
326.779
327.19
327.032
326.864
326.715
326.572
326.656
326.195
325.866
325.454
324.843
324.478
323.871
321.348
321.597
322.209
322.505
322.729
322.942
323.203
323.169
323.481
323.422
323.254
323.106
322.981
323.064
322.694
322.369
322.019
321.528
321.206
320.707
318.056
318.278
318.739
319.025
319.209
319.315
319.591
319.543
319.782
319.859
319.671
319.565
319.39
319.519
319.219
318.899
318.606
318.193
317.929
317.511
314.794
314.953
315.331
315.572
315.667
315.733
315.969
315.946
316.111
316.281
316.072
316.008
315.822
315.971
315.722
315.446
315.222
314.893
314.616
314.313
311.521
311.632
311.903
312.092
312.149
312.219
312.421
312.387
312.511
312.635
312.468
312.476
312.291
312.393
312.189
312.033
311.834
311.543
311.324
311.106
308.192
308.313
308.47
308.629
308.639
308.686
308.861
308.909
308.913
309.018
308.908
308.958
308.819
308.871
308.709
308.639
308.441
308.215
308.11
307.965
304.917
304.99
305.067
305.185
305.184
305.196
305.327
305.37
305.349
305.421
305.348
305.384
305.323
305.371
305.239
305.209
305.08
304.943
304.882
304.805
301.661
301.667
301.708
301.737
301.718
301.741
301.789
301.786
301.774
301.827
301.792
301.821
301.813
301.794
301.775
301.783
301.718
301.66
301.645
301.629
325.278
325.991
326.624
327.088
327.443
327.719
327.958
328.073
328.247
328.245
328.278
328.081
327.844
327.958
327.331
326.934
326.46
326.077
325.557
324.842
321.841
322.458
323.05
323.454
323.751
323.972
324.205
324.293
324.362
324.429
324.467
324.295
324.067
324.185
323.625
323.329
322.929
322.561
322.145
321.486
318.449
318.943
319.47
319.811
320.022
320.259
320.466
320.521
320.511
320.642
320.612
320.528
320.304
320.395
319.929
319.736
319.39
319.054
318.706
318.2
315.075
315.444
315.934
316.199
316.321
316.534
316.718
316.783
316.706
316.859
316.838
316.775
316.598
316.614
316.286
316.133
315.897
315.607
315.322
314.935
311.731
311.944
312.339
312.57
312.698
312.855
313.037
313.028
312.945
313.079
313.052
313.006
312.904
312.854
312.659
312.515
312.357
312.114
311.897
311.637
308.336
308.485
308.802
308.971
309.112
309.142
309.33
309.316
309.207
309.334
309.313
309.3
309.24
309.19
309.012
308.918
308.818
308.641
308.5
308.331
305.01
305.069
305.26
305.384
305.506
305.471
305.585
305.635
305.542
305.629
305.551
305.579
305.576
305.502
305.381
305.352
305.311
305.211
305.105
304.971
301.665
301.694
301.761
301.791
301.847
301.818
301.858
301.892
301.849
301.886
301.868
301.865
301.884
301.83
301.82
301.8
301.773
301.767
301.707
301.649
326.455
326.948
327.737
328.1
328.69
328.803
329.171
329.312
329.266
329.406
329.485
329.238
329.07
328.932
328.533
328.025
327.567
327.134
326.611
325.992
322.879
323.316
324.018
324.298
324.807
324.948
325.258
325.355
325.316
325.411
325.507
325.229
325.165
325.023
324.679
324.222
323.904
323.453
322.996
322.513
319.357
319.656
320.25
320.541
320.929
321.12
321.29
321.385
321.365
321.471
321.519
321.264
321.273
321.107
320.84
320.483
320.267
319.795
319.444
319.025
315.822
316.049
316.538
316.865
317.087
317.253
317.395
317.427
317.421
317.549
317.534
317.356
317.425
317.223
316.992
316.784
316.581
316.175
315.908
315.537
312.293
312.422
312.872
313.163
313.284
313.39
313.549
313.506
313.52
313.661
313.559
313.453
313.574
313.327
313.178
313.082
312.885
312.594
312.374
312.077
308.808
308.866
309.197
309.394
309.479
309.555
309.688
309.64
309.659
309.771
309.66
309.595
309.712
309.495
309.378
309.335
309.223
308.969
308.836
308.633
305.265
305.333
305.505
305.641
305.689
305.736
305.824
305.783
305.773
305.877
305.792
305.76
305.841
305.682
305.607
305.591
305.544
305.383
305.336
305.183
301.766
301.78
301.836
301.902
301.923
301.913
301.957
301.945
301.932
301.978
301.934
301.917
301.966
301.884
301.863
301.867
301.856
301.808
301.801
301.739
327.52
328.071
328.512
328.985
329.497
329.953
330.234
330.373
330.448
330.6
330.646
330.445
330.268
329.872
329.551
329.338
328.668
328.11
327.691
327.004
323.803
324.29
324.669
325.019
325.538
325.925
326.203
326.264
326.354
326.454
326.513
326.343
326.218
325.797
325.579
325.396
324.806
324.389
323.964
323.413
320.12
320.519
320.844
321.103
321.581
321.914
322.165
322.194
322.293
322.31
322.376
322.255
322.189
321.761
321.606
321.46
320.937
320.624
320.258
319.833
316.493
316.757
317.013
317.272
317.671
317.912
318.106
318.145
318.233
318.223
318.293
318.18
318.146
317.761
317.689
317.521
317.136
316.853
316.547
316.189
312.81
313.027
313.246
313.447
313.768
313.937
314.06
314.061
314.18
314.186
314.256
314.107
314.156
313.841
313.752
313.639
313.298
313.095
312.847
312.572
309.16
309.311
309.441
309.631
309.874
309.954
310.014
310.057
310.144
310.127
310.198
310.049
310.127
309.896
309.809
309.748
309.505
309.377
309.175
308.989
305.482
305.567
305.636
305.757
305.942
305.983
306.008
306.051
306.076
306.05
306.133
306.027
306.082
305.929
305.844
305.864
305.697
305.619
305.536
305.426
301.84
301.869
301.888
301.911
301.994
302.018
302.015
302.031
302.056
302.017
302.061
302.009
302.032
301.976
301.936
301.963
301.936
301.877
301.857
301.823
328.517
328.988
329.566
330.116
330.553
331.038
331.326
331.409
331.417
331.772
331.616
331.752
331.56
330.947
330.68
330.305
329.824
329.056
328.656
328.211
324.684
325.07
325.613
326.049
326.477
326.856
327.063
327.203
327.156
327.515
327.339
327.453
327.295
326.776
326.592
326.24
325.823
325.164
324.782
324.436
320.861
321.143
321.627
322.013
322.399
322.671
322.822
323.021
322.938
323.292
323.071
323.194
323.087
322.6
322.519
322.245
321.806
321.277
320.976
320.669
317.064
317.216
317.649
318.001
318.33
318.512
318.648
318.845
318.758
319.035
318.889
318.969
318.857
318.467
318.409
318.155
317.848
317.425
317.148
316.888
313.263
313.328
313.694
313.999
314.271
314.41
314.473
314.657
314.595
314.767
314.701
314.748
314.668
314.362
314.328
314.088
313.949
313.59
313.316
313.085
309.448
309.513
309.789
310.005
310.212
310.28
310.378
310.502
310.455
310.564
310.518
310.55
310.507
310.26
310.238
310.054
309.972
309.676
309.503
309.298
305.645
305.754
305.889
305.989
306.134
306.163
306.237
306.292
306.314
306.343
306.298
306.342
306.332
306.114
306.167
306.037
306.009
305.831
305.747
305.556
301.907
301.93
301.963
302.009
302.059
302.077
302.103
302.085
302.132
302.116
302.104
302.128
302.115
302.043
302.083
302.024
302.055
301.958
301.919
301.862
329.403
329.898
330.501
331.186
331.812
332.17
332.551
332.793
332.641
332.878
332.729
332.647
332.413
332.029
331.9
331.303
331.015
330.288
329.518
329.237
325.43
325.858
326.368
326.958
327.521
327.842
328.145
328.332
328.224
328.435
328.321
328.255
328.04
327.74
327.606
327.118
326.877
326.225
325.521
325.332
321.467
321.789
322.267
322.767
323.234
323.54
323.73
323.881
323.85
324.039
323.937
323.864
323.679
323.434
323.342
322.948
322.704
322.186
321.572
321.43
317.55
317.701
318.184
318.628
318.999
319.237
319.404
319.492
319.442
319.669
319.577
319.503
319.311
319.178
319.061
318.775
318.515
318.193
317.634
317.526
313.614
313.694
314.123
314.488
314.764
314.962
315.108
315.119
315.069
315.269
315.255
315.152
315.003
314.895
314.805
314.597
314.398
314.115
313.724
313.615
309.713
309.729
310.062
310.353
310.546
310.653
310.845
310.818
310.755
310.881
310.94
310.784
310.676
310.657
310.553
310.425
310.26
310.076
309.814
309.728
305.836
305.817
306.016
306.213
306.352
306.385
306.523
306.479
306.467
306.518
306.563
306.439
306.373
306.395
306.331
306.254
306.169
306.055
305.861
305.837
301.972
301.961
302.031
302.097
302.149
302.141
302.177
302.176
302.147
302.195
302.189
302.142
302.116
302.159
302.089
302.094
302.039
302.024
301.963
301.937
330.361
330.739
331.324
331.913
332.657
333.102
333.608
333.701
333.782
333.749
333.854
333.762
333.425
333.091
332.787
332.43
332.109
331.309
330.636
329.975
326.259
326.604
327.102
327.606
328.234
328.672
329.058
329.196
329.21
329.226
329.291
329.217
328.931
328.594
328.401
328.078
327.806
327.111
326.495
325.98
322.205
322.472
322.914
323.328
323.837
324.256
324.559
324.654
324.666
324.711
324.758
324.67
324.467
324.198
324.025
323.756
323.55
322.933
322.407
322.063
318.12
318.331
318.715
319.089
319.462
319.855
320.086
320.154
320.102
320.194
320.208
320.157
320.006
319.795
319.595
319.426
319.27
318.792
318.325
318.095
314.067
314.22
314.559
314.82
315.136
315.458
315.601
315.621
315.553
315.707
315.649
315.645
315.523
315.377
315.207
315.088
315.028
314.614
314.245
314.077
310.043
310.129
310.443
310.606
310.832
311.067
311.127
311.119
311.064
311.219
311.172
311.167
311.13
311.008
310.882
310.723
310.767
310.431
310.151
310.081
306.029
306.064
306.236
306.37
306.524
306.652
306.696
306.644
306.627
306.721
306.69
306.672
306.691
306.604
306.581
306.424
306.46
306.28
306.086
306.09
302.012
302.019
302.087
302.134
302.193
302.236
302.26
302.203
302.217
302.233
302.244
302.235
302.248
302.234
302.217
302.137
302.184
302.121
302.041
302.027
331.354
331.53
332.413
332.959
333.448
333.999
334.399
334.563
334.693
334.786
334.872
334.496
334.442
334.271
333.979
333.557
332.763
332.22
331.318
330.712
327.157
327.273
328.057
328.475
328.958
329.46
329.755
329.929
329.959
330.082
330.186
329.84
329.82
329.662
329.438
329.007
328.369
327.91
327.159
326.613
322.958
323.071
323.71
324.052
324.443
324.904
325.142
325.277
325.291
325.468
325.517
325.224
325.198
325.043
324.861
324.485
323.956
323.548
323.004
322.519
318.796
318.847
319.385
319.686
319.994
320.368
320.518
320.617
320.6
320.836
320.855
320.648
320.531
320.45
320.329
320
319.566
319.216
318.825
318.421
314.61
314.651
315.01
315.308
315.535
315.82
315.955
315.945
315.941
316.225
316.205
316.061
315.924
315.887
315.766
315.531
315.192
314.908
314.636
314.36
310.423
310.476
310.696
310.948
311.115
311.337
311.399
311.358
311.354
311.575
311.555
311.451
311.356
311.404
311.274
311.076
310.833
310.657
310.439
310.256
306.265
306.301
306.405
306.589
306.65
306.804
306.863
306.79
306.802
306.926
306.923
306.873
306.836
306.867
306.747
306.631
306.472
306.389
306.24
306.168
302.092
302.111
302.136
302.184
302.222
302.287
302.308
302.273
302.291
302.305
302.317
302.324
302.305
302.294
302.247
302.199
302.16
302.126
302.096
302.076
332.054
332.42
333.169
333.894
334.301
334.917
335.146
335.534
335.699
335.824
335.607
335.486
335.412
335.209
334.89
334.374
333.786
333.242
332.399
331.727
327.778
328.034
328.695
329.335
329.692
330.213
330.4
330.731
330.899
330.963
330.776
330.677
330.616
330.481
330.223
329.768
329.228
328.779
328.067
327.494
323.495
323.69
324.199
324.769
325.063
325.542
325.697
325.997
326.113
326.133
325.947
325.88
325.838
325.74
325.575
325.132
324.726
324.288
323.741
323.309
319.247
319.352
319.693
320.25
320.457
320.896
320.989
321.265
321.348
321.361
321.179
321.172
321.105
321.044
320.925
320.516
320.224
319.85
319.427
319.128
314.965
314.971
315.248
315.707
315.88
316.254
316.278
316.515
316.571
316.587
316.494
316.47
316.36
316.342
316.281
315.94
315.732
315.443
315.091
314.91
310.693
310.654
310.866
311.163
311.344
311.598
311.605
311.766
311.819
311.842
311.821
311.757
311.673
311.692
311.657
311.339
311.264
311.048
310.755
310.675
306.4
306.373
306.509
306.716
306.77
306.972
306.932
307.064
307.074
307.106
307.075
307.062
306.998
307.023
306.973
306.778
306.765
306.623
306.443
306.429
302.143
302.15
302.171
302.238
302.266
302.351
302.336
302.372
302.355
302.39
302.37
302.356
302.338
302.355
302.332
302.267
302.259
302.233
302.163
302.17
332.475
333.338
333.942
334.814
335.227
335.813
335.945
336.436
336.512
336.848
336.593
336.546
336.24
336.052
335.761
334.976
334.492
334.008
333.263
332.522
328.129
328.853
329.359
330.165
330.473
330.974
331.11
331.481
331.613
331.879
331.675
331.659
331.357
331.218
330.94
330.249
329.893
329.429
328.807
328.181
323.786
324.386
324.789
325.476
325.765
326.144
326.284
326.569
326.673
326.935
326.803
326.731
326.48
326.415
326.152
325.582
325.279
324.889
324.375
323.825
319.436
319.918
320.23
320.812
321.107
321.372
321.47
321.696
321.794
322.029
321.927
321.798
321.63
321.611
321.394
320.918
320.681
320.295
319.924
319.493
315.098
315.451
315.691
316.148
316.399
316.644
316.691
316.859
316.947
317.112
317.036
316.933
316.796
316.83
316.669
316.229
316.071
315.795
315.477
315.211
310.789
311.04
311.193
311.515
311.686
311.876
311.921
312.034
312.089
312.194
312.151
312.118
312.004
312.041
311.89
311.547
311.522
311.275
311.035
310.904
306.481
306.624
306.742
306.885
306.969
307.12
307.182
307.193
307.272
307.308
307.262
307.262
307.205
307.198
307.09
306.923
306.925
306.772
306.618
306.548
302.185
302.217
302.244
302.296
302.336
302.364
302.405
302.38
302.426
302.436
302.424
302.429
302.422
302.398
302.358
302.32
302.341
302.279
302.209
302.199
333.331
334.013
334.609
335.261
335.961
336.64
336.926
337.182
337.306
337.507
337.362
337.252
337.131
336.902
336.547
335.7
335.274
334.791
334.042
333.335
328.807
329.449
329.934
330.485
331.14
331.681
331.946
332.142
332.293
332.434
332.283
332.215
332.128
331.939
331.603
330.86
330.509
330.136
329.463
328.919
324.343
324.864
325.308
325.761
326.305
326.779
326.979
327.109
327.301
327.375
327.293
327.236
327.158
327.052
326.653
326.079
325.76
325.47
324.888
324.51
319.903
320.281
320.704
321.036
321.491
321.873
322.078
322.117
322.268
322.366
322.316
322.277
322.196
322.166
321.763
321.278
321.05
320.808
320.311
320.072
315.428
315.705
316.107
316.366
316.761
316.969
317.155
317.167
317.296
317.347
317.345
317.318
317.255
317.232
316.893
316.56
316.349
316.204
315.78
315.646
310.988
311.183
311.509
311.724
311.995
312.097
312.282
312.247
312.356
312.415
312.372
312.334
312.325
312.307
312.054
311.84
311.659
311.582
311.282
311.193
306.581
306.716
306.906
307.044
307.201
307.248
307.398
307.366
307.414
307.466
307.424
307.38
307.389
307.401
307.229
307.126
307.011
306.948
306.768
306.71
302.204
302.245
302.333
302.342
302.419
302.399
302.49
302.466
302.462
302.505
302.484
302.495
302.461
302.467
302.417
302.386
302.352
302.336
302.284
302.24
334.036
334.542
335.268
336.001
336.698
337.343
337.722
338.062
338.08
338.05
338.086
338.049
337.83
337.617
337.135
336.488
336.184
335.487
334.573
334.127
329.472
329.867
330.499
331.137
331.732
332.349
332.673
332.963
332.969
332.922
332.979
332.91
332.72
332.56
332.179
331.605
331.315
330.715
329.98
329.569
324.913
325.279
325.786
326.334
326.789
327.367
327.627
327.892
327.849
327.806
327.88
327.815
327.633
327.555
327.252
326.77
326.462
325.962
325.349
324.991
320.376
320.686
321.073
321.527
321.853
322.408
322.572
322.803
322.74
322.71
322.796
322.738
322.562
322.521
322.309
321.953
321.657
321.229
320.697
320.474
315.863
316.08
316.385
316.714
316.998
317.381
317.533
317.708
317.629
317.65
317.708
317.652
317.532
317.469
317.373
317.107
316.856
316.533
316.065
315.939
311.344
311.485
311.706
311.967
312.109
312.364
312.527
312.632
312.612
312.618
312.628
312.59
312.515
312.448
312.405
312.209
312.056
311.817
311.487
311.386
306.829
306.882
307.03
307.183
307.259
307.395
307.538
307.549
307.592
307.588
307.555
307.543
307.513
307.478
307.473
307.34
307.234
307.068
306.912
306.838
302.301
302.294
302.375
302.425
302.425
302.469
302.521
302.526
302.545
302.541
302.53
302.554
302.51
302.5
302.51
302.455
302.447
302.381
302.32
302.295
334.532
335.281
336.009
336.776
337.17
337.892
338.402
338.844
338.835
338.901
338.912
338.724
338.297
338.358
337.921
337.479
336.931
336.09
335.345
334.622
329.898
330.5
331.179
331.854
332.2
332.826
333.258
333.606
333.602
333.655
333.666
333.493
333.121
333.17
332.815
332.506
331.994
331.247
330.579
330.008
325.232
325.732
326.356
326.946
327.21
327.758
328.101
328.379
328.397
328.463
328.46
328.307
327.982
328.038
327.78
327.505
327.09
326.397
325.825
325.399
320.631
321.011
321.566
322.011
322.215
322.674
322.949
323.18
323.237
323.261
323.266
323.142
322.869
322.915
322.719
322.505
322.131
321.579
321.111
320.804
316.021
316.327
316.779
317.088
317.258
317.611
317.783
318.003
318.07
318.06
318.098
317.956
317.741
317.801
317.673
317.502
317.181
316.8
316.417
316.198
311.454
311.671
312.003
312.202
312.319
312.591
312.699
312.824
312.908
312.89
312.923
312.809
312.651
312.679
312.653
312.519
312.253
311.988
311.731
311.585
306.893
307.008
307.223
307.321
307.391
307.6
307.644
307.692
307.747
307.77
307.786
307.699
307.601
307.613
307.615
307.499
307.361
307.177
307.077
306.971
302.321
302.364
302.413
302.456
302.496
302.567
302.568
302.588
302.577
302.614
302.601
302.576
302.55
302.556
302.542
302.505
302.482
302.395
302.367
302.34
334.811
335.597
336.577
337.17
337.715
338.287
339.061
339.312
339.511
339.597
339.836
339.225
338.87
338.836
338.576
338.007
337.518
336.697
335.734
335.138
330.095
330.842
331.693
332.133
332.635
333.154
333.829
333.989
334.183
334.304
334.509
333.95
333.645
333.59
333.381
332.911
332.461
331.758
330.904
330.427
325.373
326.056
326.819
327.146
327.57
328.018
328.603
328.683
328.914
329.021
329.175
328.713
328.416
328.424
328.194
327.837
327.397
326.781
326.086
325.738
320.723
321.295
321.928
322.177
322.491
322.866
323.377
323.429
323.652
323.725
323.881
323.464
323.193
323.27
323.047
322.775
322.351
321.873
321.33
321.043
316.116
316.522
317.016
317.236
317.481
317.756
318.124
318.205
318.407
318.458
318.575
318.239
317.979
318.093
317.877
317.717
317.355
316.957
316.561
316.383
311.509
311.824
312.144
312.354
312.488
312.67
312.938
312.966
313.147
313.203
313.288
313.018
312.815
312.925
312.713
312.666
312.394
312.088
311.787
311.666
306.904
307.112
307.286
307.432
307.513
307.611
307.782
307.776
307.912
307.935
307.998
307.813
307.673
307.76
307.62
307.618
307.428
307.237
307.077
306.98
302.328
302.399
302.433
302.507
302.522
302.537
302.635
302.595
302.649
302.667
302.67
302.607
302.58
302.61
302.569
302.57
302.488
302.424
302.377
302.327
335.436
336.051
336.802
337.797
338.031
338.755
339.451
339.853
340.045
340.099
340.288
339.892
339.539
339.33
339.089
338.461
337.858
337.311
336.469
335.717
330.699
331.195
331.861
332.712
332.905
333.547
334.149
334.536
334.631
334.732
334.892
334.495
334.187
334.044
333.823
333.316
332.746
332.297
331.574
330.904
325.944
326.373
326.967
327.651
327.797
328.349
328.861
329.197
329.229
329.358
329.488
329.145
328.863
328.765
328.554
328.231
327.676
327.371
326.671
326.132
321.22
321.568
322.044
322.547
322.684
323.147
323.604
323.851
323.887
324.01
324.097
323.84
323.558
323.531
323.31
323.057
322.622
322.393
321.755
321.324
316.529
316.777
317.172
317.531
317.616
317.964
318.294
318.518
318.536
318.638
318.74
318.558
318.262
318.308
318.095
317.894
317.548
317.417
316.874
316.524
311.803
312.002
312.281
312.538
312.586
312.819
313.032
313.158
313.23
313.292
313.362
313.226
312.995
313.078
312.917
312.723
312.524
312.419
312.028
311.785
307.119
307.192
307.367
307.551
307.569
307.675
307.846
307.897
307.917
307.965
307.982
307.94
307.785
307.813
307.725
307.631
307.499
307.436
307.189
307.068
302.401
302.385
302.47
302.526
302.544
302.578
302.628
302.65
302.649
302.668
302.685
302.642
302.581
302.619
302.574
302.558
302.508
302.48
302.406
302.355
335.636
336.648
337.208
338.11
338.736
339.276
339.812
340.059
340.282
340.353
340.554
340.305
340.053
340.03
339.222
338.737
338.515
337.838
336.865
336.101
330.848
331.73
332.23
333.012
333.558
334.001
334.457
334.683
334.843
334.934
335.105
334.882
334.596
334.614
333.926
333.528
333.363
332.747
331.921
331.292
326.116
326.824
327.271
327.96
328.384
328.737
329.108
329.338
329.461
329.514
329.672
329.433
329.232
329.198
328.641
328.307
328.199
327.688
327.007
326.416
321.422
321.948
322.324
322.882
323.222
323.5
323.749
323.981
324.074
324.107
324.278
324.038
323.891
323.818
323.405
323.12
323.007
322.677
322.09
321.598
316.669
317.119
317.381
317.84
318.098
318.264
318.426
318.646
318.698
318.757
318.888
318.685
318.538
318.505
318.135
317.985
317.845
317.628
317.167
316.753
311.901
312.221
312.453
312.776
312.923
313.03
313.178
313.31
313.345
313.401
313.476
313.293
313.231
313.183
312.913
312.843
312.716
312.601
312.224
311.906
307.159
307.325
307.475
307.708
307.796
307.831
307.9
307.995
307.994
308.019
308.097
307.972
307.922
307.903
307.722
307.715
307.605
307.59
307.312
307.118
302.402
302.448
302.511
302.599
302.614
302.628
302.646
302.684
302.681
302.679
302.726
302.662
302.666
302.656
302.581
302.592
302.532
302.521
302.454
302.371
335.767
336.856
337.526
338.3
338.999
339.158
339.786
340.135
340.48
340.234
340.886
340.548
340.496
340.167
339.497
338.97
338.797
338.01
337.09
336.592
330.979
331.905
332.482
333.154
333.756
333.856
334.367
334.719
335.013
334.755
335.386
335.053
335.015
334.814
334.195
333.684
333.617
332.874
332.123
331.685
326.195
326.958
327.441
328.014
328.545
328.604
329.036
329.344
329.598
329.352
329.886
329.573
329.557
329.45
328.897
328.433
328.365
327.776
327.158
326.805
321.46
322.05
322.414
322.886
323.314
323.405
323.739
323.975
324.192
324.024
324.426
324.155
324.152
324.13
323.583
323.203
323.144
322.747
322.219
321.949
316.698
317.157
317.451
317.804
318.119
318.192
318.468
318.649
318.833
318.639
318.943
318.737
318.744
318.747
318.316
318.041
317.984
317.685
317.297
317.086
311.947
312.27
312.486
312.752
312.91
312.995
313.211
313.325
313.452
313.272
313.508
313.371
313.342
313.37
313.082
312.909
312.86
312.622
312.351
312.216
307.198
307.376
307.488
307.66
307.732
307.794
307.966
307.997
308.057
307.968
308.104
308.059
307.998
308.037
307.818
307.762
307.752
307.58
307.405
307.325
302.435
302.475
302.533
302.558
302.586
302.615
302.678
302.677
302.696
302.678
302.734
302.686
302.659
302.707
302.615
302.594
302.602
302.551
302.474
302.46
)
;

boundaryField
{
    hotSide
    {
        type            fixedGradient;
        gradient        nonuniform List<scalar> 
400
(
232.442
243.599
254.681
265.64
276.424
286.983
297.267
307.225
316.808
325.967
334.655
342.827
350.441
357.457
363.838
369.55
374.563
378.852
382.395
385.174
237.326
248.838
260.278
271.596
282.738
293.653
304.289
314.594
324.516
334.005
343.013
351.492
359.4
366.693
373.335
379.289
384.525
389.016
392.74
395.677
241.573
253.413
265.183
276.833
288.307
299.553
310.517
321.145
331.384
341.182
350.489
359.257
367.44
374.995
381.883
388.067
393.516
398.2
402.097
405.186
245.17
257.308
269.381
281.333
293.112
304.661
315.925
326.85
337.38
347.463
357.047
366.082
374.521
382.32
389.438
395.838
401.485
406.352
410.413
413.648
248.115
260.519
272.861
285.086
297.137
308.959
320.495
331.688
342.483
352.824
362.659
371.938
380.611
388.633
395.962
402.56
408.392
413.428
417.643
421.015
250.406
263.043
275.621
288.084
300.376
312.439
324.214
335.644
346.673
357.244
367.304
376.8
385.683
393.906
401.425
408.203
414.202
419.393
423.749
427.248
252.048
264.882
277.661
290.328
302.825
315.093
327.075
338.71
349.941
360.711
370.966
380.651
389.717
398.116
405.804
412.74
418.889
424.218
428.701
432.315
253.048
266.042
278.985
291.819
304.485
316.923
329.075
340.88
352.279
363.216
373.635
383.48
392.701
401.249
409.08
416.153
422.43
427.88
432.474
436.19
253.416
266.533
279.601
292.563
305.359
317.93
330.215
342.154
353.687
364.756
375.305
385.278
394.624
403.295
411.243
418.428
424.812
430.362
435.051
438.855
253.163
266.363
279.517
292.568
305.456
318.12
330.5
342.534
354.164
365.33
375.975
386.044
395.484
404.247
412.285
419.557
426.025
431.655
436.42
440.296
252.301
265.544
278.744
291.844
304.782
317.5
329.935
342.027
353.716
364.942
375.648
385.779
395.281
404.105
412.204
419.537
426.065
431.754
436.575
440.505
250.843
264.088
277.294
290.401
303.35
316.08
328.531
340.641
352.35
363.599
374.329
384.487
394.017
402.872
411.003
418.369
424.932
430.657
435.515
439.483
248.803
262.009
275.177
288.251
301.169
313.871
326.297
338.385
350.075
361.308
372.027
382.176
391.702
400.555
408.689
416.06
422.632
428.37
433.244
437.232
246.191
259.317
272.409
285.407
298.253
310.886
323.246
335.272
346.904
358.084
368.754
378.859
388.346
397.165
405.271
412.621
419.176
424.903
429.773
433.762
243.022
256.028
269
281.882
294.615
307.138
319.392
331.316
342.852
353.94
364.525
374.55
383.965
392.719
400.767
408.066
414.579
420.272
425.117
429.089
239.308
252.153
264.967
277.693
290.271
302.644
314.752
326.536
337.936
348.896
359.358
369.27
378.579
387.236
395.196
402.418
408.863
414.499
419.298
423.235
235.063
247.709
260.325
272.854
285.239
297.423
309.346
320.95
332.178
342.972
353.278
363.041
372.212
380.741
388.585
395.702
402.055
407.612
412.345
416.229
230.303
242.712
255.091
267.385
279.539
291.495
303.196
314.584
325.603
336.197
346.311
355.894
364.895
373.267
380.966
387.953
394.19
399.646
404.293
408.109
225.044
237.179
249.285
261.308
273.194
284.886
296.328
307.465
318.24
328.6
338.491
347.861
356.663
364.85
372.378
379.21
385.308
390.643
395.186
398.917
219.305
231.132
242.93
254.648
266.231
277.625
288.775
299.626
310.126
320.219
329.856
338.985
347.559
355.534
362.867
369.52
375.459
380.653
385.076
388.706
)
;
    }
    coldSide
    {
        type            mixed;
        refValue        uniform 300;
        refGradient     uniform 0;
        valueFraction   uniform 0.991591;
        source          uniform 0;
        value           nonuniform List<scalar> 
400
(
300.013
300.013
300.013
300.014
300.014
300.015
300.015
300.016
300.017
300.017
300.018
300.018
300.018
300.019
300.019
300.02
300.02
300.02
300.02
300.02
300.013
300.013
300.014
300.014
300.014
300.015
300.016
300.016
300.016
300.017
300.018
300.018
300.019
300.019
300.019
300.02
300.02