/*--------------------------------*- C++ -*----------------------------------*\
| =========                 |                                                 |
| \\      /  F ield         | OpenFOAM: The Open Source CFD Toolbox           |
|  \\    /   O peration     | Version:  2212                                  |
|   \\  /    A nd           | Website:  www.openfoam.com                      |
|    \\/     M anipulation  |                                                 |
\*---------------------------------------------------------------------------*/
FoamFile
{
    version     2.0;
    format      ascii;
    arch        "LSB;label=32;scalar=64";
    class       volScalarField;
    location    "0";
    object      T;
}
// * * * * * * * * * * * * * * * * * * * * * * * * * * * * * * * * * * * * * //

dimensions      [0 0 0 1 0 0 0];

internalField   nonuniform List<scalar> 
3200
(
337.657
336.476
335.874
335.347
335.412
335.857
336.466
336.951
337.389
337.99
337.858
337.762
337.282
336.922
336.44
335.917
335.453
335.643
336.31
337.071
332.585
331.602
331.138
330.645
330.688
331.083
331.637
332.047
332.446
332.955
332.858
332.75
332.349
332.026
331.634
331.155
330.74
330.955
331.501
332.115
327.544
326.751
326.407
325.931
325.956
326.323
326.797
327.104
327.479
327.897
327.84
327.723
327.419
327.101
326.793
326.387
326.038
326.225
326.685
327.155
322.515
321.901
321.645
321.219
321.227
321.57
321.958
322.163
322.48
322.833
322.795
322.71
322.459
322.189
321.928
321.614
321.317
321.475
321.855
322.194
317.54
317.049
316.87
316.493
316.504
316.794
317.1
317.233
317.487
317.748
317.734
317.688
317.487
317.261
317.066
316.832
316.603
316.732
317.029
317.261
312.534
312.187
312.081
311.78
311.78
312.002
312.239
312.31
312.505
312.682
312.682
312.659
312.492
312.332
312.21
312.052
311.881
311.955
312.178
312.34
307.534
307.309
307.272
307.082
307.063
307.21
307.365
307.4
307.507
307.622
307.611
307.618
307.496
307.402
307.333
307.241
307.159
307.186
307.325
307.403
302.527
302.452
302.434
302.381
302.367
302.419
302.473
302.482
302.525
302.54
302.554
302.564
302.506
302.48
302.456
302.434
302.404
302.415
302.455
302.478
337.802
336.666
335.913
335.556
335.69
336.182
336.933
337.538
337.879
338.428
338.325
338.064
337.764
337.315
336.625
336.089
335.748
335.838
336.515
337.373
332.74
331.785
331.157
330.798
330.939
331.37
332.031
332.585
332.857
333.308
333.222
333.005
332.764
332.371
331.775
331.301
331.019
331.116
331.697
332.374
327.692
326.894
326.392
326.061
326.212
326.56
327.122
327.616
327.834
328.174
328.15
327.956
327.762
327.396
326.906
326.505
326.287
326.39
326.85
327.38
322.658
321.995
321.622
321.348
321.473
321.732
322.2
322.602
322.809
323.05
323.051
322.899
322.74
322.419
322.04
321.721
321.533
321.635
321.995
322.411
317.623
317.124
316.819
316.618
316.729
316.924
317.284
317.554
317.754
317.938
317.954
317.829
317.695
317.449
317.164
316.912
316.754
316.864
317.127
317.435
312.592
312.239
312.003
311.874
311.951
312.096
312.347
312.514
312.704
312.821
312.842
312.744
312.626
312.478
312.256
312.089
311.972
312.088
312.238
312.479
307.566
307.356
307.211
307.13
307.178
307.255
307.411
307.511
307.644
307.696
307.718
307.655
307.57
307.491
307.368
307.271
307.192
307.274
307.349
307.514
302.546
302.455
302.414
302.394
302.409
302.43
302.485
302.513
302.572
302.588
302.599
302.574
302.549
302.505
302.479
302.445
302.415
302.438
302.462
302.523
338.068
336.97
336.316
336.007
336.246
336.803
337.401
338.108
338.639
339.043
339.077
338.727
338.405
337.842
337.203
336.669
336.35
336.261
336.946
337.751
332.961
332.066
331.491
331.227
331.434
331.899
332.424
333.059
333.51
333.842
333.879
333.559
333.273
332.817
332.263
331.783
331.541
331.485
332.053
332.727
327.875
327.163
326.675
326.447
326.614
327.019
327.449
327.991
328.386
328.633
328.682
328.4
328.162
327.788
327.301
326.899
326.717
326.679
327.126
327.716
322.811
322.229
321.842
321.645
321.802
322.115
322.433
322.9
323.229
323.442
323.472
323.256
323.044
322.754
322.321
322.02
321.866
321.856
322.208
322.69
317.727
317.298
317.016
316.857
316.99
317.204
317.436
317.826
318.075
318.253
318.275
318.097
317.923
317.724
317.359
317.119
317.031
317.009
317.293
317.646
312.655
312.342
312.158
312.054
312.154
312.306
312.444
312.727
312.924
313.039
313.056
312.939
312.814
312.668
312.411
312.201
312.193
312.167
312.352
312.625
307.6
307.399
307.296
307.24
307.303
307.398
307.469
307.64
307.765
307.833
307.843
307.778
307.695
307.606
307.467
307.318
307.337
307.314
307.412
307.583
302.556
302.471
302.445
302.416
302.458
302.467
302.504
302.562
302.593
302.616
302.628
302.619
302.576
302.552
302.509
302.448
302.458
302.454
302.483
302.533
338.634
337.65
336.886
336.744
336.977
337.503
338.087
338.889
339.316
339.749
339.916
339.751
339.41
338.633
337.943
337.257
336.968
336.939
337.525
338.335
333.453
332.649
331.989
331.878
332.062
332.521
332.991
333.73
334.071
334.445
334.59
334.468
334.201
333.492
332.898
332.314
332.072
332.059
332.539
333.235
328.296
327.634
327.082
326.999
327.131
327.527
327.913
328.546
328.839
329.148
329.282
329.19
328.942
328.354
327.831
327.363
327.169
327.169
327.564
328.122
323.156
322.634
322.176
322.086
322.228
322.505
322.852
323.353
323.621
323.832
323.98
323.898
323.692
323.21
322.763
322.385
322.249
322.234
322.573
323.018
318.019
317.624
317.247
317.178
317.31
317.502
317.774
318.151
318.413
318.533
318.678
318.601
318.438
318.053
317.7
317.415
317.304
317.295
317.581
317.913
312.875
312.594
312.328
312.29
312.387
312.506
312.703
312.981
313.207
313.246
313.356
313.296
313.178
312.894
312.645
312.435
312.37
312.352
312.576
312.822
307.742
307.565
307.405
307.394
307.453
307.497
307.628
307.799
307.96
307.951
308.033
307.982
307.906
307.738
307.588
307.457
307.421
307.42
307.561
307.723
302.601
302.54
302.487
302.486
302.505
302.514
302.562
302.61
302.669
302.661
302.69
302.672
302.655
302.581
302.542
302.494
302.48
302.497
302.536
302.602
339.272
338.454
337.718
337.529
337.805
338.337
338.902
339.804
340.326
340.753
340.931
340.842
340.565
339.704
338.85
338.189
337.951
337.777
338.308
339.076
334.041
333.349
332.702
332.545
332.786
333.245
333.741
334.492
334.974
335.297
335.464
335.416
335.167
334.434
333.69
333.113
332.904
332.767
333.256
333.866
328.799
328.222
327.695
327.567
327.755
328.136
328.563
329.197
329.615
329.859
329.995
329.973
329.75
329.161
328.531
328.037
327.86
327.762
328.197
328.649
323.557
323.102
322.692
322.581
322.724
323.037
323.373
323.892
324.234
324.425
324.539
324.534
324.35
323.867
323.344
322.949
322.824
322.721
323.088
323.446
318.334
317.96
317.678
317.6
317.701
317.917
318.191
318.6
318.851
318.996
319.082
319.079
318.95
318.567
318.142
317.865
317.778
317.682
317.968
318.241
313.09
312.818
312.639
312.604
312.656
312.811
313.006
313.301
313.459
313.537
313.638
313.623
313.559
313.261
312.95
312.778
312.747
312.64
312.864
313.029
307.854
307.68
307.602
307.586
307.601
307.708
307.816
307.992
308.081
308.118
308.189
308.186
308.152
307.964
307.771
307.676
307.683
307.59
307.737
307.829
302.638
302.574
302.551
302.547
302.545
302.581
302.622
302.678
302.708
302.711
302.744
302.745
302.736
302.668
302.6
302.569
302.576
302.54
302.587
302.626
340.129
339.418
338.689
338.428
338.712
339.219
339.861
340.806
341.438
341.839
342.067
341.993
341.629
340.727
339.957
339.345
338.96
338.889
339.356
340.197
334.73
334.181
333.558
333.306
333.557
334.008
334.537
335.407
335.918
336.259
336.473
336.412
336.121
335.32
334.64
334.112
333.795
333.745
334.155
334.826
329.368
328.953
328.396
328.194
328.401
328.79
329.226
329.969
330.388
330.659
330.853
330.821
330.587
329.908
329.326
328.846
328.619
328.586
328.92
329.456
324.028
323.707
323.24
323.085
323.275
323.566
323.912
324.517
324.877
325.072
325.223
325.225
325.066
324.484
324.012
323.572
323.43
323.4
323.684
324.106
318.696
318.45
318.081
317.964
318.126
318.349
318.605
319.078
319.362
319.496
319.605
319.618
319.52
319.062
318.675
318.312
318.22
318.212
318.437
318.769
313.361
313.19
312.911
312.834
312.97
313.124
313.308
313.642
313.834
313.941
314.001
314.016
313.962
313.627
313.346
313.075
313.029
313.005
313.165
313.414
308.031
307.921
307.746
307.715
307.775
307.885
308.021
308.208
308.29
308.376
308.417
308.413
308.385
308.195
308.014
307.86
307.833
307.812
307.906
308.057
302.692
302.65
302.589
302.586
302.605
302.642
302.695
302.754
302.768
302.806
302.812
302.812
302.796
302.742
302.678
302.632
302.625
302.612
302.646
302.696
341.146
340.399
339.886
339.65
339.806
340.322
341.081
341.832
342.629
343.114
343.371
343.227
342.694
341.923
341.214
340.503
340.162
340.04
340.517
341.426
335.619
335.012
334.598
334.366
334.486
334.978
335.621
336.265
336.965
337.373
337.592
337.477
337.054
336.355
335.743
335.107
334.841
334.718
335.147
335.913
330.099
329.631
329.31
329.082
329.186
329.589
330.146
330.698
331.308
331.615
331.797
331.722
331.397
330.769
330.254
329.716
329.496
329.404
329.74
330.396
324.615
324.252
324.002
323.799
323.892
324.229
324.674
325.11
325.605
325.875
325.991
325.986
325.72
325.167
324.755
324.309
324.151
324.066
324.333
324.864
319.149
318.864
318.69
318.518
318.595
318.86
319.214
319.538
319.901
320.13
320.192
320.235
320.014
319.589
319.237
318.914
318.793
318.718
318.914
319.347
313.679
313.475
313.375
313.242
313.297
313.479
313.74
313.976
314.225
314.39
314.405
314.465
314.303
313.997
313.741
313.505
313.437
313.384
313.532
313.827
308.212
308.086
308.032
307.963
307.996
308.089
308.251
308.394
308.552
308.642
308.639
308.699
308.594
308.394
308.244
308.109
308.082
308.022
308.127
308.285
302.762
302.705
302.693
302.673
302.686
302.717
302.766
302.813
302.87
302.894
302.891
302.918
302.883
302.813
302.76
302.718
302.707
302.691
302.723
302.779
342.43
341.738
341.056
340.845
341.011
341.448
342.155
343.042
343.812
344.377
344.488
344.471
344.003
343.109
342.427
341.813
341.404
341.292
341.786
342.583
336.72
336.158
335.609
335.413
335.531
335.936
336.57
337.309
337.982
338.471
338.538
338.527
338.136
337.378
336.803
336.26
335.924
335.828
336.25
336.933
331.049
330.593
330.152
329.975
330.07
330.443
330.988
331.606
332.149
332.569
332.581
332.591
332.285
331.633
331.168
330.687
330.413
330.353
330.671
331.294
325.414
325.039
324.695
324.558
324.595
324.958
325.403
325.884
326.324
326.668
326.644
326.642
326.423
325.883
325.509
325.136
324.924
324.863
325.099
325.637
319.767
319.49
319.214
319.145
319.147
319.429
319.79
320.146
320.499
320.756
320.705
320.744
320.561
320.132
319.82
319.561
319.425
319.36
319.531
319.943
314.125
313.935
313.705
313.714
313.673
313.889
314.17
314.388
314.663
314.838
314.78
314.822
314.676
314.373
314.133
314.006
313.908
313.848
313.967
314.258
308.469
308.385
308.223
308.257
308.206
308.348
308.511
308.635
308.819
308.915
308.879
308.91
308.805
308.628
308.49
308.432
308.34
308.335
308.386
308.559
302.84
302.813
302.747
302.775
302.752
302.803
302.859
302.893
302.962
302.985
302.983
302.991
302.942
302.883
302.855
302.829
302.791
302.794
302.813
302.875
343.808
343.026
342.335
342.182
342.28
342.824
343.496
344.334
345.066
345.559
345.623
345.623
345.245
344.416
343.822
343.084
342.742
342.623
343.116
343.776
337.961
337.311
336.707
336.579
336.662
337.145
337.726
338.436
339.06
339.516
339.544
339.551
339.216
338.512
338
337.349
337.086
336.976
337.375
337.94
332.127
331.589
331.066
330.965
331.06
331.465
331.958
332.545
333.049
333.482
333.452
333.456
333.193
332.604
332.169
331.637
331.421
331.309
331.64
332.099
326.283
325.86
325.41
325.35
325.418
325.757
326.163
326.646
327.058
327.416
327.371
327.371
327.178
326.682
326.324
325.906
325.751
325.631
325.895
326.273
320.44
320.139
319.742
319.737
319.776
320.036
320.383
320.714
321.087
321.339
321.296
321.279
321.151
320.749
320.477
320.161
320.06
319.959
320.161
320.464
314.611
314.391
314.124
314.113
314.133
314.307
314.567
314.789
315.094
315.247
315.219
315.214
315.11
314.811
314.637
314.439
314.341
314.295
314.416
314.646
308.774
308.64
308.491
308.476
308.489
308.592
308.766
308.884
309.089
309.166
309.144
309.135
309.084
308.887
308.797
308.683
308.607
308.606
308.667
308.812
302.94
302.894
302.845
302.843
302.845
302.882
302.939
302.965
303.056
303.082
303.069
303.052
303.044
302.989
302.953
302.915
302.872
302.883
302.903
302.953
345.092
344.409
343.838
343.546
343.571
344.062
344.741
345.426
346.204
346.663
346.834
346.819
346.386
345.628
344.962
344.381
343.983
344.053
344.494
345.124
339.065
338.51
337.998
337.738
337.77
338.183
338.811
339.39
340.074
340.44
340.586
340.569
340.215
339.543
338.985
338.479
338.149
338.206
338.608
339.104
333.076
332.606
332.157
331.939
331.991
332.314
332.894
333.339
333.941
334.221
334.316
334.311
334.034
333.469
333.005
332.58
332.315
332.365
332.716
333.086
327.084
326.701
326.316
326.147
326.194
326.462
326.935
327.287
327.792
327.999
328.069
328.073
327.849
327.395
327.014
326.655
326.469
326.517
326.798
327.07
321.066
320.8
320.489
320.341
320.389
320.599
320.953
321.227
321.65
321.782
321.825
321.83
321.65
321.306
321.014
320.715
320.614
320.651
320.864
321.063
315.05
314.883
314.649
314.536
314.583
314.717
314.952
315.164
315.5
315.552
315.589
315.587
315.477
315.232
315.027
314.796
314.749
314.769
314.932
315.036
309.028
308.938
308.814
308.734
308.753
308.837
308.975
309.109
309.323
309.332
309.37
309.35
309.307
309.144
309.043
308.875
308.86
308.869
308.986
309.024
303.038
303.002
302.963
302.931
302.938
302.968
303.006
303.041
303.132
303.126
303.144
303.128
303.116
303.067
303.03
302.975
302.978
302.977
303.017
303.027
346.516
345.761
345.212
344.915
344.9
345.297
345.962
346.573
347.3
347.762
347.954
347.937
347.465
346.886
346.207
345.568
345.415
345.442
345.874
346.42
340.299
339.667
339.201
338.952
338.933
339.26
339.871
340.381
341.007
341.408
341.569
341.564
341.146
340.65
340.069
339.509
339.401
339.427
339.804
340.241
334.073
333.58
333.19
332.972
332.961
333.225
333.779
334.192
334.727
335.042
335.198
335.186
334.832
334.417
333.945
333.438
333.37
333.392
333.728
334.062
327.861
327.474
327.204
327.008
326.981
327.198
327.662
328.014
328.438
328.664
328.814
328.781
328.528
328.167
327.783
327.38
327.328
327.35
327.631
327.887
321.663
321.383
321.194
321.027
321.002
321.168
321.537
321.818
322.15
322.276
322.421
322.374
322.209
321.902
321.617
321.288
321.275
321.286
321.514
321.709
315.467
315.285
315.141
315.035
315.015
315.129
315.378
315.6
315.827
315.92
316.028
315.986
315.864
315.651
315.428
315.232
315.219
315.202
315.379
315.524
309.278
309.172
309.098
309.025
309.017
309.095
309.238
309.385
309.518
309.559
309.633
309.595
309.526
309.41
309.268
309.165
309.151
309.114
309.245
309.325
303.109
303.074
303.045
303.028
303.013
303.05
303.105
303.148
303.194
303.206
303.23
303.216
303.191
303.162
303.112
303.081
303.064
303.052
303.099
303.127
347.917
347.1
346.621
346.371
346.371
346.644
347.235
347.735
348.376
348.745
349.007
348.976
348.701
348.048
347.593
346.946
346.756
346.842
347.291
347.865
341.495
340.832
340.43
340.207
340.205
340.448
340.981
341.36
341.945
342.235
342.46
342.452
342.24
341.638
341.28
340.701
340.563
340.628
341.025
341.486
335.085
334.569
334.218
334.04
334.048
334.25
334.696
334.986
335.519
335.739
335.887
335.924
335.756
335.233
334.974
334.455
334.349
334.391
334.73
335.094
328.698
328.312
328.007
327.857
327.856
328.034
328.413
328.63
329.113
329.24
329.339
329.399
329.278
328.813
328.647
328.216
328.126
328.158
328.414
328.697
322.329
322.048
321.78
321.676
321.657
321.815
322.117
322.308
322.682
322.766
322.803
322.879
322.787
322.403
322.286
321.972
321.889
321.913
322.098
322.307
315.935
315.763
315.539
315.495
315.461
315.603
315.789
315.959
316.223
316.285
316.286
316.342
316.297
316.022
315.912
315.724
315.652
315.662
315.793
315.931
309.565
309.464
309.326
309.314
309.283
309.369
309.473
309.587
309.763
309.78
309.797
309.822
309.787
309.637
309.556
309.452
309.401
309.419
309.501
309.571
303.206
303.169
303.118
303.122
303.123
303.139
303.169
303.21
303.287
303.27
303.285
303.299
303.277
303.237
303.202
303.166
303.152
303.169
303.175
303.209
349.236
348.549
347.96
347.719
347.709
347.963
348.373
348.909
349.538
349.822
350.04
350.14
349.754
349.198
348.887
348.4
348.16
348.221
348.628
349.158
342.653
342.087
341.586
341.392
341.366
341.572
341.944
342.391
342.949
343.168
343.39
343.466
343.13
342.664
342.406
341.982
341.77
341.808
342.148
342.613
336.077
335.629
335.195
335.048
335.018
335.198
335.494
335.894
336.347
336.553
336.729
336.79
336.522
336.107
335.909
335.553
335.36
335.385
335.677
336.082
329.516
329.166
328.806
328.697
328.674
328.823
329.062
329.392
329.743
329.924
330.03
330.114
329.894
329.526
329.394
329.099
328.954
328.962
329.204
329.538
322.935
322.685
322.393
322.329
322.326
322.424
322.618
322.876
323.152
323.291
323.354
323.424
323.292
322.974
322.857
322.617
322.544
322.527
322.724
322.993
316.385
316.214
315.991
315.966
315.953
316.041
316.168
316.348
316.572
316.654
316.69
316.75
316.655
316.421
316.336
316.155
316.109
316.08
316.25
316.451
309.85
309.736
309.597
309.593
309.588
309.652
309.698
309.814
309.958
310.011
310.042
310.064
310.007
309.863
309.809
309.694
309.654
309.651
309.76
309.882
303.304
303.258
303.207
303.214
303.21
303.236
303.251
303.288
303.333
303.363
303.379
303.36
303.365
303.315
303.297
303.254
303.232
303.248
303.273
303.311
350.646
350.005
349.369
349.034
349.072
349.207
349.578
350.111
350.637
350.944
351.148
351.225
350.808
350.38
349.995
349.595
349.525
349.574
349.958
350.631
343.866
343.332
342.814
342.523
342.551
342.67
342.964
343.438
343.926
344.197
344.338
344.403
344.072
343.668
343.347
343.013
342.955
342.998
343.315
343.895
337.11
336.679
336.254
335.99
336.027
336.124
336.358
336.755
337.225
337.452
337.549
337.591
337.317
336.958
336.696
336.415
336.367
336.398
336.683
337.18
330.358
330.025
329.666
329.471
329.51
329.58
329.772
330.072
330.495
330.666
330.724
330.755
330.554
330.242
330.043
329.802
329.757
329.79
330.006
330.435
323.61
323.375
323.074
322.942
322.967
323.026
323.149
323.39
323.737
323.874
323.918
323.932
323.779
323.543
323.38
323.19
323.151
323.175
323.338
323.699
316.871
316.709
316.479
316.413
316.417
316.47
316.55
316.731
316.983
317.067
317.096
317.098
316.998
316.848
316.725
316.586
316.54
316.545
316.678
316.939
310.127
310.033
309.887
309.864
309.866
309.903
309.948
310.054
310.198
310.242
310.265
310.253
310.205
310.122
310.061
309.971
309.942
309.926
310.031
310.185
303.396
303.362
303.317
303.315
303.317
303.328
303.335
303.369
303.42
303.428
303.44
303.444
303.436
303.389
303.375
303.34
303.329
303.319
303.36
303.41
352.129
351.574
350.96
350.531
350.486
350.538
350.909
351.204
351.595
351.945
352.129
352.162
351.877
351.533
351.21
350.883
350.853
350.968
351.353
352.069
345.177
344.743
344.188
343.817
343.772
343.827
344.141
344.378
344.727
345.031
345.188
345.238
344.998
344.699
344.405
344.129
344.118
344.219
344.53
345.138
338.211
337.878
337.421
337.096
337.039
337.094
337.351
337.55
337.888
338.141
338.261
338.279
338.095
337.825
337.572
337.339
337.357
337.441
337.703
338.196
331.256
331
330.646
330.388
330.315
330.369
330.572
330.718
331.023
331.232
331.335
331.332
331.193
330.964
330.752
330.551
330.601
330.642
330.867
331.254
324.33
324.137
323.854
323.65
323.604
323.63
323.794
323.905
324.148
324.314
324.403
324.364
324.307
324.083
323.936
323.773
323.821
323.844
324.007
324.305
317.411
317.281
317.055
316.914
316.878
316.89
317.028
317.087
317.266
317.401
317.459
317.418
317.407
317.207
317.131
317
317.03
317.044
317.161
317.354
310.472
310.399
310.246
310.164
310.124
310.144
310.234
310.259
310.377
310.466
310.497
310.469
310.477
310.329
310.3
310.198
310.238
310.249
310.317
310.422
303.523
303.486
303.437
303.403
303.395
303.401
303.433
303.434
303.475
303.515
303.522
303.508
303.516
303.457
303.455
303.411
303.43
303.44
303.454
303.492
353.701
353.073
352.323
351.861
351.889
351.932
352.133
352.502
352.683
353.029
353.217
353.221
353.086
352.678
352.473
352.236
352.248
352.415
352.871
353.465
346.537
346.014
345.361
344.971
345.002
345.034
345.206
345.529
345.686
345.985
346.164
346.146
346.071
345.68
345.508
345.301
345.347
345.467
345.851
346.358
339.392
338.981
338.404
338.084
338.096
338.155
338.295
338.543
338.681
338.947
339.078
339.058
338.994
338.656
338.518
338.352
338.416
338.524
338.832
339.213
332.255
331.913
331.435
331.187
331.177
331.277
331.363
331.529
331.657
331.868
331.964
331.981
331.911
331.641
331.515
331.385
331.475
331.568
331.805
332.088
325.111
324.855
324.44
324.277
324.263
324.36
324.432
324.51
324.647
324.803
324.844
324.887
324.817
324.609
324.521
324.424
324.519
324.589
324.749
324.942
317.947
317.773
317.45
317.349
317.328
317.413
317.462
317.526
317.608
317.721
317.739
317.781
317.734
317.577
317.518
317.471
317.542
317.596
317.674
317.8
310.773
310.682
310.486
310.425
310.383
310.462
310.49
310.547
310.575
310.638
310.662
310.661
310.645
310.556
310.519
310.51
310.546
310.6
310.631
310.679
303.612
303.583
303.521
303.503
303.482
303.511
303.505
303.543
303.538
303.558
303.586
303.573
303.577
303.531
303.534
303.52
303.551
303.563
303.57
303.578
355.017
354.379
353.803
353.28
353.105
353.189
353.336
353.689
353.89
354.017
354.122
354.224
354.115
353.865
353.692
353.641
353.576
353.775
354.196
354.697
347.687
347.151
346.637
346.191
346.057
346.113
346.238
346.564
346.727
346.838
346.948
347.013
346.907
346.702
346.568
346.522
346.481
346.64
346.997
347.419
340.383
339.946
339.482
339.108
339.013
339.054
339.154
339.417
339.55
339.657
339.767
339.823
339.692
339.533
339.445
339.376
339.357
339.493
339.791
340.134
333.077
332.711
332.332
332.026
331.934
331.959
332.038
332.258
332.367
332.46
332.578
332.598
332.466
332.359
332.302
332.238
332.22
332.345
332.588
332.843
325.756
325.472
325.166
324.947
324.849
324.868
324.919
325.1
325.189
325.286
325.367
325.361
325.257
325.16
325.147
325.102
325.095
325.174
325.357
325.542
318.416
318.221
317.989
317.854
317.757
317.762
317.81
317.932
318.001
318.07
318.119
318.125
318.041
317.976
317.984
317.961
317.935
317.979
318.14
318.28
311.079
310.943
310.809
310.728
310.671
310.668
310.711
310.771
310.832
310.853
310.882
310.887
310.823
310.791
310.811
310.807
310.769
310.802
310.918
310.971
303.709
303.655
303.616
303.597
303.576
303.576
303.583
303.614
303.637
303.636
303.656
303.647
303.633
303.623
303.634
303.615
303.609
303.621
303.663
303.679
356.571
355.955
355.24
354.801
354.431
354.441
354.447
354.839
355.111
355.21
355.215
355.225
355.038
354.878
354.903
354.81
354.882
355.045
355.524
356.136
349.036
348.522
347.89
347.495
347.209
347.188
347.187
347.527
347.766
347.897
347.895
347.882
347.699
347.591
347.607
347.536
347.599
347.753
348.131
348.64
341.51
341.071
340.538
340.198
339.964
339.926
339.955
340.206
340.441
340.558
340.528
340.542
340.363
340.276
340.317
340.257
340.294
340.434
340.735
341.13
333.967
333.619
333.198
332.92
332.724
332.66
332.702
332.896
333.133
333.191
333.181
333.192
333.035
332.963
332.984
332.97
332.997
333.105
333.342
333.635
326.429
326.18
325.824
325.622
325.469
325.402
325.46
325.605
325.806
325.821
325.839
325.825
325.714
325.652
325.65
325.679
325.689
325.768
325.928
326.164
318.89
318.693
318.465
318.3
318.181
318.131
318.19
318.288
318.448
318.454
318.467
318.442
318.396
318.331
318.308
318.351
318.362
318.41
318.529
318.699
311.356
311.225
311.104
310.998
310.9
310.881
310.922
310.981
311.076
311.082
311.094
311.066
311.05
311.009
310.986
311.028
311.038
311.065
311.131
311.229
303.795
303.766
303.725
303.691
303.642
303.651
303.661
303.675
303.719
303.711
303.724
303.71
303.697
303.692
303.68
303.686
303.71
303.719
303.74
303.767
357.798
357.184
356.547
355.974
355.702
355.661
355.607
355.875
356.058
356.039
356.151
356.112
355.99
355.95
356.069
355.933
356.037
356.299
356.783
357.375
350.063
349.543
349.022
348.474
348.271
348.222
348.194
348.435
348.566
348.568
348.66
348.631
348.532
348.497
348.608
348.499
348.602
348.824
349.223
349.711
342.365
341.915
341.492
341.017
340.844
340.802
340.772
340.981
341.082
341.099
341.179
341.159
341.06
341.055
341.146
341.073
341.128
341.338
341.665
342.034
334.67
334.283
333.975
333.57
333.439
333.385
333.381
333.508
333.622
333.634
333.718
333.69
333.605
333.6
333.666
333.638
333.667
333.836
334.079
334.365
326.972
326.643
326.444
326.122
326.038
325.969
325.976
326.067
326.181
326.169
326.229
326.217
326.171
326.16
326.17
326.179
326.211
326.317
326.517
326.701
319.273
319.025
318.902
318.671
318.605
318.54
318.575
318.64
318.728
318.697
318.743
318.733
318.719
318.701
318.689
318.72
318.734
318.79
318.958
319.069
311.587
311.414
311.366
311.234
311.187
311.14
311.159
311.208
311.264
311.236
311.249
311.252
311.248
311.241
311.246
311.252
311.25
311.28
311.388
311.458
303.888
303.832
303.804
303.772
303.74
303.731
303.741
303.749
303.765
303.759
303.768
303.779
303.773
303.766
303.777
303.77
303.767
303.777
303.818
303.841
358.725
358.054
357.491
356.899
356.622
356.605
356.439
356.57
356.718
356.727
356.84
356.886
356.744
356.686
356.827
356.754
356.844
357.32
357.826
358.329
350.831
350.243
349.76
349.28
349.021
349.01
348.869
349.001
349.103
349.135
349.24
349.272
349.146
349.102
349.235
349.169
349.249
349.639
350.085
350.507
342.98
342.477
342.085
341.703
341.47
341.425
341.327
341.438
341.531
341.574
341.682
341.688
341.563
341.53
341.652
341.578
341.683
341.963
342.355
342.699
335.148
334.748
334.412
334.132
333.925
333.884
333.789
333.896
333.976
334
334.098
334.112
334.003
333.979
334.069
334.013
334.116
334.306
334.632
334.915
327.338
327.049
326.764
326.553
326.401
326.358
326.287
326.356
326.429
326.444
326.526
326.551
326.447
326.434
326.481
326.467
326.552
326.67
326.928
327.144
319.549
319.335
319.128
318.974
318.854
318.817
318.789
318.853
318.888
318.891
318.954
318.974
318.888
318.888
318.898
318.916
318.983
319.059
319.239
319.388
311.757
311.608
311.514
311.39
311.298
311.305
311.263
311.329
311.34
311.334
311.378
311.409
311.341
311.331
311.344
311.347
311.402
311.448
311.549
311.654
303.951
303.891
303.866
303.813
303.781
303.785
303.779
303.809
303.807
303.794
303.806
303.817
303.793
303.794
303.805
303.798
303.825
303.838
303.876
303.907
)
;

boundaryField
{
    hotSide
    {
        type            fixedGradient;
        gradient        nonuniform List<scalar> 
400
(
405.624
406.396
409.696
415.461
423.444
433.29
444.62
457.083
470.393
484.323
498.704
513.413
528.368
543.514
558.825
574.294
589.93
605.747
621.761
637.979
389.057
390.026
393.7
400
408.628
419.165
431.173
444.267
458.138
472.55
487.331
502.362
517.565
532.893
548.329
563.876
579.555
595.392
611.415
627.638
379.308
380.71
384.784
391.445
400.397
411.222
423.485
436.799
450.85
465.399
480.271
495.347
510.55
525.839
541.201
556.647
572.202
587.901
603.776
619.847
375.956
378.007
382.52
389.407
398.414
409.184
421.331
434.497
448.38
462.744
477.411
492.262
507.218
522.243
537.327
552.484
567.744
583.141
598.71
614.473
377.312
380.136
385.15
392.264
401.267
411.868
423.743
436.577
450.09
464.056
478.301
492.709
507.205
521.759
536.368
551.051
565.841
580.775
595.89
611.211
381.457
385.101
390.695
398.138
407.246
417.769
429.427
441.938
455.046
468.535
482.244
496.064
509.938
523.849
537.808
551.849
566.014
580.346
594.883
609.657
386.82
391.287
397.532
405.44
414.829
425.466
437.085
449.414
462.203
475.244
488.388
501.546
514.688
527.826
541.002
554.272
567.694
581.323
595.203
609.368
392.208
397.463
404.397
412.882
422.725
433.686
445.484
457.83
470.454
483.141
495.751
508.225
520.576
532.866
545.18
557.609
570.234
583.123
596.326
609.877
396.691
402.638
410.234
419.337
429.744
441.19
453.361
465.92
478.551
491.01
503.159
514.979
526.546
537.99
549.452
561.064
572.931
585.131
597.716
610.72
399.533
405.993
414.117
423.761
434.712
446.681
459.311
472.206
484.982
497.346
509.157
520.441
531.35
542.086
552.848
563.804
575.075
586.747
598.87
611.472
400.221
406.918
415.319
425.281
436.583
448.921
461.908
475.101
488.062
500.454
512.131
523.15
533.715
544.08
554.481
565.103
576.079
587.494
599.398
611.817
398.536
405.135
413.482
423.434
434.765
447.165
460.24
473.542
486.627
499.157
510.977
522.141
532.845
543.337
553.851
564.575
575.641
587.138
599.119
611.611
394.639
400.808
408.78
418.409
429.468
441.646
454.565
467.804
480.965
493.737
505.966
517.661
528.955
540.042
551.119
562.354
573.876
585.777
598.117
610.928
389.089
394.564
401.933
411.054
421.695
433.55
446.256
459.43
472.719
485.845
498.646
511.082
523.214
535.163
547.072
559.08
571.303
583.834
596.739
610.057
382.834
387.446
394.107
402.683
412.936
424.549
437.159
450.398
463.935
477.506
490.94
504.159
517.166
530.024
542.829
555.686
568.7
581.957
595.526
609.454
377.215
380.886
386.835
394.935
404.928
416.462
429.143
442.59
456.469
470.518
484.556
498.483
512.268
525.935
539.546
553.184
566.94
580.899
595.13
609.681
374.031
376.771
382.058
389.773
399.618
411.177
424.007
437.696
451.9
466.352
480.871
495.345
509.725
524.016
538.258
552.52
566.884
581.435
596.243
611.355
375.46
377.389
382.08
389.421
399.073
410.566
423.413
437.18
451.516
466.161
480.932
495.717
510.458
525.145
539.807
554.501
569.301
584.291
599.54
615.09
383.438
384.792
388.941
395.784
404.986
416.079
428.579
442.06
456.183
470.693
485.411
500.221
515.06
529.907
544.775
559.71
574.774
590.039
605.567
621.392
398.542
399.585
403.238
409.419
417.852
428.142
439.868
452.65
466.172
480.194
494.539
509.086
523.764
538.539
553.41
568.403
583.562
598.938
614.576
630.5
)
;
    }
    coldSide
    {
        type            mixed;
        refValue        uniform 300;
        refGradient     uniform 0;
        valueFraction   uniform 0.991591;
        source          uniform 0;
        value           nonuniform List<scalar> 
400
(
300.021
300.021
300.021
300.022
300.022
300.023
300.023
300.024
300.025
300.026
300.026
300.027
300.028
300.029
300.03
300.03
300.031
300.032
300.033
300.033
300.021
300.021
300.021
300.021
300.022
300.022
300.023
300.024
300.024
300.025
300.026
300.027
300.027
300.028
300.029
300.03
300.031
300.032
300.032
300.033