/*--------------------------------*- C++ -*----------------------------------*\
| =========                 |                                                 |
| \\      /  F ield         | OpenFOAM: The Open Source CFD Toolbox           |
|  \\    /   O peration     | Version:  2212                                  |
|   \\  /    A nd           | Website:  www.openfoam.com                      |
|    \\/     M anipulation  |                                                 |
\*---------------------------------------------------------------------------*/
FoamFile
{
    version     2.0;
    format      ascii;
    arch        "LSB;label=32;scalar=64";
    class       volScalarField;
    location    "./ITHACAoutput/true/1";
    object      error;
}
// * * * * * * * * * * * * * * * * * * * * * * * * * * * * * * * * * * * * * //

dimensions      [0 0 0 1 0 0 0];

internalField   nonuniform List<scalar> 
3200
(
-4.9236
-2.80895
-1.09487
0.108704
2.24147
2.89764
4.63
3.38032
4.2498
5.777
7.23394
3.04541
2.86593
2.8207
0.976572
5.28054
1.34192
0.616766
-1.4719
-3.651
-3.73517
-3.1053
-0.26073
0.0299726
0.563579
0.496658
1.6477
4.23173
3.64059
4.30385
2.60889
2.6184
4.20943
2.24018
2.04065
2.84778
1.22925
2.02833
0.343259
-2.86472
-2.75748
0.671581
-0.285943
1.3839
0.371791
2.87377
-0.205057
0.710139
2.74268
2.75862
2.35603
3.25843
2.91325
1.93029
0.728082
2.01243
3.25932
-0.282509
1.03199
0.0963225
-2.88988
-0.71913
-1.34607
-0.988266
0.227803
1.01072
0.954194
1.8327
5.89549
1.57841
4.00594
0.595624
2.97453
3.40476
-0.262806
0.566047
2.38668
1.17506
-0.37667
-2.75164
-3.6964
-2.63835
-0.696301
-0.97806
0.880314
1.10243
3.16317
1.97447
1.37567
1.90264
2.07853
2.50943
2.79829
1.85557
0.134613
1.83257
2.73112
-3.05403
-2.43182
-0.72909
-1.93313
1.49053
0.337503
-1.40881
1.5689
1.68531
1.2975
1.22482
1.69633
1.7364
2.29912
-1.25253
1.95503
1.37074
0.114813
0.158241
-0.428822
2.84775
-2.42819
-2.88825
-0.348856
-1.44283
-1.29155
-0.361633
1.7308
2.45971
1.62063
1.34263
-0.321506
-0.121421
2.00252
-0.864976
1.00843
2.42386
-0.265579
-1.28988
2.08899
0.920115
-1.91104
-0.83332
-1.50816
-1.53743
-0.0311563
1.56374
-0.259642
0.312751
-1.05382
0.209699
-0.337155
-0.330625
0.097007
0.147115
-0.277839
1.13786
-0.0565149
0.925005
-1.6451
0.384555
2.26497
-0.765086
-5.42947
-1.37375
-0.14955
0.58816
-0.10864
2.1674
3.73875
1.93599
3.37355
3.3451
4.94438
3.88215
3.36074
5.16515
3.30165
2.4761
0.579681
-0.639935
1.21744
-2.48068
-5.83285
-0.255038
-1.15253
0.474121
0.710031
0.0285278
2.27449
0.146904
4.50898
0.223103
0.632172
3.64701
0.575215
3.65414
0.626795
3.71521
0.45693
1.29393
-0.19441
-1.9309
-1.84897
-0.404547
-1.31539
2.48566
0.119468
-0.167695
1.9148
3.22983
1.79644
1.4365
3.23916
5.14768
2.67945
2.14643
-0.153416
2.56319
1.07429
-0.208631
0.873796
-2.20032
-3.63562
-1.99692
-1.18789
1.36621
2.53367
1.93488
2.74314
4.49496
4.60771
3.40294
1.70554
1.1194
0.685876
3.51905
3.1929
1.44885
0.224942
1.01199
-0.329292
-1.31754
-1.86296
-0.686355
-0.160402
0.147634
0.916374
0.134558
2.51106
0.601196
0.57233
3.88316
1.04943
1.38664
2.11677
1.05997
0.99407
1.82966
1.18057
1.4151
-0.623082
-2.26148
-1.14491
-1.99416
0.678723
-0.701815
-1.233
0.827961
0.559613
0.404743
0.487034
1.53121
0.363576
3.58934
0.863234
0.0996384
1.43835
0.813579
2.78626
-1.45059
-1.65551
-2.48021
-1.99983
0.751734
-1.31227
1.6151
0.0465983
-1.06794
-1.64298
1.018
1.42397
0.0228608
-0.358748
0.237784
1.38085
0.286337
2.21711
1.34374
0.224604
-2.28264
1.57913
-2.05665
-0.838214
1.49062
0.432749
-0.307592
0.532511
0.137193
1.13508
-0.470832
-1.52481
-0.287431
2.83849
-0.821163
0.5833
0.666186
-0.75408
0.492489
-0.957195
-2.00586
-0.576845
-0.726219
-4.65633
-1.67015
-0.543111
-1.02141
1.79501
1.34773
3.18313
3.63023
3.21225
4.81314
3.52216
2.12077
2.63543
2.05615
2.85762
1.95921
1.53268
-1.65011
-0.660299
-2.4696
-5.19146
-1.34131
-1.61576
1.9979
2.27831
2.60962
2.94962
2.29865
2.45987
4.67186
3.23628
3.77354
2.17338
2.9964
2.55493
2.49305
0.632197
-1.75908
-3.00041
-0.689636
-2.70715
-0.156498
-0.782492
-0.0804731
1.17913
1.07788
2.30068
0.890325
4.34825
1.89452
1.43405
2.95236
2.33015
1.13331
-0.27191
1.35318
1.24041
1.75811
1.43499
-3.17458
-2.00396
-0.971648
0.741669
-0.107701
-0.63281
2.71394
0.863723
2.65934
2.80319
0.644675
2.47504
1.41583
3.52814
2.12706
0.630047
1.45881
2.3201
1.77587
-0.722503
-0.738834
-1.76391
-1.14427
-0.966896
-0.216986
0.606852
2.24592
1.9468
1.82058
3.25061
1.72658
1.46237
3.03749
1.01658
0.988963
1.59556
-1.44413
-0.300305
-0.946904
0.782137
-2.7377
-1.63972
-0.637687
0.00440132
0.301088
1.44227
1.38181
0.252131
1.20277
1.09852
-0.201251
0.422458
0.123247
2.56893
1.08071
1.44321
1.87627
-1.49812
0.787277
-0.510825
-1.29517
-1.54517
-0.273051
1.81471
2.40138
1.75113
2.75772
1.57157
1.43629
0.847786
-0.287192
-0.742009
1.85645
-0.580917
-0.0660934
0.504649
1.52133
0.498659
-1.5875
0.515505
-0.4599
0.583862
-1.40714
-0.268428
-1.20568
1.04061
-1.31156
1.19854
0.564487
-0.473126
0.609034
-0.665886
-0.153471
-1.71232
0.245449
0.125748
-0.847612
-1.84933
-1.64094
-1.16738
-0.214985
-5.08203
-1.88011
0.338225
1.16478
-0.675446
2.5034
2.36128
2.06424
2.28628
2.45431
2.5936
3.27047
2.12052
2.2843
2.97166
2.32628
2.04929
0.64263
-1.19254
-1.77374
-5.85812
-0.491006
-1.59204
0.00762695
1.47969
-0.0731538
0.429846
0.603483
4.73725
0.271992
-0.0274711
2.65136
0.113086
0.729173
0.0391896
3.35601
0.347058
0.337439
-0.625659
-1.47053
-4.9553
-2.53693
-0.959722
1.86888
1.00549
0.703451
0.0956372
1.67041
0.686803
3.29882
1.25192
-0.178164
1.7256
0.181868
-0.250515
1.01022
3.34265
0.775417
-1.61516
-0.467511
-2.49839
-2.25329
-0.822214
2.0669
-0.815774
1.34726
3.20028
-0.0201552
-0.011348
3.1172
1.43937
2.13519
1.71731
0.482245
0.0627995
-1.08498
-1.52468
0.152365
0.532426
0.330086
-2.3672
0.569934
-0.380063
1.38086
-0.139494
1.44509
1.03196
3.35065
-0.0444203
1.20151
-2.67034
0.000665351
1.552
1.83301
-0.979443
-0.615492
0.0484457
0.419297
-1.73858
-1.23484
-2.73054
-1.06915
0.229144
-0.398916
3.73057
-1.23071
0.671266
2.11882
0.760275
0.970312
-0.0302976
1.59473
0.503974
2.08421
0.699253
-1.62592
0.219963
-0.317219
-0.785343
-1.04614
-0.662474
-1.98084
-0.360144
0.378608
-0.769913
0.163554
0.860487
1.90793
0.228859
0.703363
0.579657
0.0179015
2.54059
0.517082
0.314077
-1.26555
-1.48182
-0.297486
1.31026
-2.2017
-0.388295
-0.935923
1.15282
-0.00340692
-1.44911
-0.244224
0.244856
-2.42059
2.40171
1.52221
-1.48739
-0.428585
-0.580198
-2.19411
0.519493
0.452427
-0.947643
-1.20717
0.993258
-0.779253
-4.87399
-3.32683
-1.95254
1.23681
0.0991021
1.30152
0.0429701
1.59924
2.87238
0.506218
-0.101207
2.14362
-1.22525
2.23438
-0.285002
1.46101
0.303044
1.79997
-3.48308
-4.01047
-5.0058
-0.850541
-1.39933
0.624542
2.04306
-0.143026
2.52491
2.37326
0.438288
0.32775
1.30718
0.569316
1.27311
0.639358
0.434514
1.43068
0.955538
1.86298
-0.788906
-1.70184
-2.11932
-0.637051
-1.38565
-0.692816
1.74192
0.548851
-0.241195
1.60354
1.0163
1.27924
-1.62085
2.38359
1.90713
1.28477
1.45689
0.125103
0.127401
-1.39739
-1.9509
0.102909
-1.02373
-3.29856
-0.594558
2.03511
-1.20557
0.737046
0.923369
0.740605
-0.121229
2.91239
0.536379
0.457971
0.375943
0.515233
1.29743
0.973792
1.52246
-0.711614
-1.19659
-1.94472
-1.33207
-1.53989
0.125149
1.56379
0.825315
1.32455
0.600975
0.759168
-0.506073
2.33783
0.444004
1.2759
1.51121
2.06084
-0.294565
2.30638
-2.13916
0.404845
-0.252631
-3.00445
-2.72409
-0.79316
0.477677
-2.24012
0.477768
0.499793
2.42818
0.0232792
0.0660486
1.67742
-0.58859
1.03311
-1.77354
1.16714
0.599118
0.431258
-0.0854934
2.52192
-0.519066
-0.841496
-1.05424
0.26633
-1.64721
1.20164
-1.36484
2.34906
0.0750545
1.95695
1.52477
1.59648
-1.55825
0.765717
0.818166
-1.826
0.303804
0.124265
-0.739262
-1.29607
0.292002
-0.627088
-0.416001
1.72968
0.488394
0.125018
0.917112
-0.264991
-1.2292
-0.432736
0.968669
2.43181
2.34897
-0.548361
3.6453
0.933346
0.675508
-1.16168
-0.00542776
-1.05291
0.860509
-1.16607
-4.90826
-2.6209
-0.982213
1.08212
-0.664817
0.951736
2.27275
-0.764364
-0.460578
2.43215
-1.73897
1.02452
1.25368
-1.25737
-0.228316
0.899116
-0.810553
0.275086
-1.47064
-3.32646
-0.800403
0.709885
0.0483922
-0.165386
0.103798
0.669478
0.830821
0.147977
-0.140849
0.373451
0.0648475
-1.03545
-0.433552
-0.476332
0.111533
1.08753
-0.216421
-0.306083
-0.22
-3.96689
-2.46944
-3.19163
-0.396238
-0.482056
-0.856999
-0.161648
-0.584565
0.00904227
1.13027
-0.352841
-0.471244
-1.4173
0.689615
1.99897
-1.5344
1.82986
1.11346
0.326517
-2.62352
-1.21193
-2.04301
-0.534468
-0.591562
-0.447514
-1.92251
1.07407
2.35583
1.97807
-0.978073
1.0236
0.0164125
-1.29854
-0.319723
-0.19063
1.67982
1.03686
-0.0136734
0.70503
-0.455765
0.34865
-1.09478
0.0737776
-0.133854
0.0396076
0.710144
0.723345
0.325963
-1.31313
1.34784
-0.609999
0.263184
-1.53472
1.07136
-0.830067
0.580046
1.99345
-0.841452
0.481098
0.303135
-0.58923
-0.904604
-1.97963
0.552103
2.60008
1.03954
0.3357
0.592057
1.44055
0.33169
-0.256921
-0.513366
0.205302
-0.643379
-0.196274
-1.06989
1.33376
-0.296824
-1.49475
-1.69854
-2.39915
1.57581
0.271363
1.3733
-0.374625
-0.105784
0.668487
0.718051
0.639753
0.208547
2.23161
-0.172863
0.0520343
-0.245506
0.293928
-1.53768
-1.4098
-0.398263
0.725419
-1.12273
-0.61573
-0.288597
-0.944672
-1.04409
-0.256838
-0.213194
0.132649
0.476168
0.876493
0.0249718
-1.82322
1.13212
-1.1251
0.227215
-0.160006
-2.82323
0.144212
-0.23413
0.182213
1.12098
-1.43038
-5.62709
-2.88502
-0.437456
-2.40241
1.53131
1.85026
1.52129
0.702123
-1.05362
1.11271
-1.7236
0.276446
-1.08471
0.570396
0.469203
0.764012
-0.122059
-0.339779
-2.4345
-2.90383
-3.5119
-3.08869
-1.08827
1.00248
1.27322
-0.632086
-1.17169
-0.723603
2.23471
0.687239
-1.48952
1.32896
-0.0140271
-1.8144
-1.63659
-0.875774
-0.561151
-0.516177
-1.5578
-1.86291
-2.55817
-0.657307
0.268151
0.417414
-1.2916
-0.581381
0.342607
-0.587874
-1.29568
-0.519764
2.10672
-1.75276
-0.731099
-2.31356
-2.10214
0.954621
-0.728113
-0.417315
-1.70981
-3.05964
-3.92524
-0.306684
2.27002
-0.358878
1.76979
3.08857
1.06245
1.03862
-1.96356
-2.71381
-1.21725
-1.24586
1.67513
-0.825085
2.28596
0.761601
-1.60658
-0.595161
-0.908118
-0.803922
-0.0910368
-0.408404
-0.654593
1.12468
-1.0509
2.79969
2.03162
0.381649
-0.317689
-1.96637
-1.46625
0.596683
-1.40481
1.41645
0.899887
-1.33354
-1.43679
-1.01135
-0.123439
-1.42114
1.37154
-1.37392
0.139087
2.45306
2.02039
-0.184124
-0.385782
0.451421
-1.18843
-2.42187
0.0728908
-0.421846
0.291191
-1.92305
-0.754946
0.806488
-0.375442
-2.0626
-1.22971
-0.703412
-0.999548
-1.37247
-0.15199
1.39472
-2.65112
-0.546793
0.439665
-1.84099
-2.27683
-0.876655
-0.392014
-0.350448
-1.45239
0.20401
-0.346867
0.794586
-0.742463
-0.169364
-1.23805
0.132927
-2.53749
1.04451
0.0016473
-1.50645
-0.578105
2.65509
-1.8482
1.9979
-0.33727
1.04722
-0.676648
-1.22304
-1.51576
0.974003
-1.91557
-0.493587
0.0586443
1.08518
-1.04797
-2.41321
-5.87483
-3.33175
-1.2492
-0.167828
1.38341
-2.26899
-0.998413
0.260424
-1.71923
-0.752236
-2.16589
-0.118099
0.329955
-0.263441
-0.124424
1.0942
0.512487
-2.0294
-2.44273
-5.32011
-4.75991
-0.802976
-0.553389
-0.556006
-0.849929
-0.288275
-0.634351
0.094637
-1.31847
-0.0868914
-0.235139
-2.17263
-0.460059
-1.56859
-0.374621
-1.97765
0.0703866
-2.6679
-0.292966
-1.34495
-3.142
-0.732434
-0.777384
-0.018458
-1.25341
-0.435848
1.47026
-0.133095
-3.17508
-1.82385
-2.05248
-1.88724
-1.4407
-1.20002
-0.206979
0.860209
-2.92388
1.62889
-3.44253
-2.00436
-3.68162
-2.06528
1.82323
2.29122
0.883898
0.531951
1.24909
1.70086
0.804567
1.54623
-1.71513
0.340865
-2.21554
-1.28736
0.438336
-0.836801
-1.61272
-0.981702
0.317339
-2.89164
-2.03662
-0.658627
1.29114
1.11072
-0.215576
-0.40202
0.543844
-0.714766
0.930259
1.13676
-1.17811
0.410979
-0.689389
-0.234294
-0.204798
-1.04496
-1.14743
-1.36032
-1.76456
-1.3036
-2.20159
-0.897028
-1.39302
1.53928
-1.33895
1.06741
-0.338245
-0.500671
0.120324
-1.12652
-1.40065
-1.12344
1.37931
-1.47855
0.0583495
-0.746647
-0.439099
0.707386
-1.00355
-0.769644
-0.773177
-0.495776
-1.05177
3.53525
0.716779
-0.253646
-0.779921
-0.652802
0.446065
0.0799505
0.916733
-1.3599
-0.414319
0.695115
-0.0824065
1.44742
0.700623
0.900026
-1.0066
-1.04728
-1.36777
-0.429547
3.30613
-0.659229
2.0301
-0.983896
-0.85579
2.23778
-0.868498
-1.26461
0.382107
-0.0593357
1.51155
-0.241505
-2.55421
0.843032
1.5578
1.19712
0.378582
-1.01507
-5.12612
-4.07715
-2.77621
-2.90507
1.0838
1.53272
-0.401477
-1.05036
-3.34585
-2.21229
-3.74845
-0.993648
-3.21699
-1.24625
-1.32175
-0.234735
1.5372
-0.929272
-2.70748
-4.95374
-4.12465
-2.34451
0.580974
-0.558999
0.0177898
0.854874
0.289336
-2.28538
-0.140613
-3.06306
-3.20077
-3.56481
-1.50567
-3.1777
-2.51453
0.105122
-0.234294
2.02124
-1.88912
-4.14811
-3.02871
-2.13202
-2.49114
-2.55958
2.34978
-0.599468
-1.64787
0.590655
-1.04104
-2.42233
-1.20054
-1.79344
-3.73387
-0.773409
-0.578727
-0.320197
-1.79883
-1.68405
-4.26917
-3.27832
-3.80169
-1.25663
-2.79234
-0.672961
-1.32428
-0.611458
-2.54946
-1.67478
-2.13555
-0.138051
-3.03823
-1.24347
-0.59563
0.644917
-0.00507401
0.384016
-1.28443
-0.0812178
-2.71925
-1.39782
-2.80532
-0.534424
-0.0791487
-0.326577
-0.80288
-0.504
-0.190963
-2.12898
-1.37194
-0.698818
-0.747912
-0.954895
-2.39704
-1.31227
-1.4999
-2.10877
0.381592
-1.31859
-2.40972
-2.48354
-2.78196
0.171419
-0.82087
-1.16102
-0.0865899
0.167842
-0.379225
-0.423632
0.405409
-0.641953
-0.484973
0.299743
-2.39935
0.21137
-1.4237
0.192795
0.577122
-1.31436
-0.504316
-0.927398
0.22159
0.986651
0.627814
0.207561
0.55503
1.84987
0.148731
-0.91405
-0.0199083
-2.36238
-0.917871
1.61165
-2.16551
-0.193447
0.957988
0.0430211
-1.39663
-1.02191
0.300256
-0.115201
-0.102925
-1.95301
-0.0143897
-0.454914
-0.160384
0.323702
-1.49291
0.888069
0.398745
0.773439
0.866432
-3.01239
-2.4054
0.748761
0.813708
1.11591
-0.215904
-0.338936
-1.02115
1.13686
-3.53247
-5.10089
-2.7364
-1.75651
-0.441585
1.6011
0.305097
-0.623584
-0.720805
-2.22789
-3.82188
-2.41713
-1.63512
-2.27148
-1.09757
-1.22022
-1.09595
-1.07597
-3.27303
-5.88491
-2.82244
-0.310069
-4.12014
0.0933529
-1.68617
-0.290993
-0.734218
0.147921
-1.05375
0.163961
0.201695
-3.13147
0.676408
-3.8236
0.179063
0.524691
0.288099
0.0195899
0.381959
-2.44687
-3.33075
-4.86009
-1.09092
-0.024108
0.805653
-1.97948
0.612678
-1.45714
-0.452678
-2.87947
-2.23234
-2.27052
-3.71397
-0.105334
-2.20332
-2.08209
-0.797109
-2.16808
-3.35677
-1.93629
-0.985249
0.446832
-1.28391
0.343605
-1.04817
-0.0874355
-0.982173
0.0636348
-1.47565
-1.29541
-2.41895
-1.49679
0.394145
0.17601
-1.13612
-1.93056
-0.311845
-0.698823
-0.707544
-1.0051
-2.40517
-2.84784
0.562708
0.234682
-1.80439
0.0599642
-0.109828
-0.382945
-0.152266
-2.35065
-1.8939
-1.0149
-1.03499
-0.489129
-0.101914
-2.01022
-1.04483
-0.844761
-0.363688
-0.504189
-1.88942
-1.43099
1.12029
1.6275
1.31324
1.65006
-0.8574
-1.06246
-0.449572
0.251519
-3.61834
-1.15443
-1.60495
-1.48659
0.349226
-1.5379
0.439438
-1.64145
0.264229
-2.08131
-0.328031
-0.591208
0.289732
-2.72278
-0.442406
0.165334
1.83996
-0.656704
-1.4933
1.61679
-0.664204
0.986356
-0.752349
-0.0157554
-1.70102
-1.1355
-1.80621
0.102804
-0.230027
-3.45574
-1.01462
-0.222196
0.460517
0.435935
1.03838
0.252667
0.692648
0.0588392
-1.52606
1.31861
2.26259
1.25759
1.20406
-2.1498
1.33024
-2.27568
-0.191239
-0.819546
-0.601225
-2.53493
-5.05446
-2.85958
-0.686466
-0.532776
-2.24649
-1.81283
-1.74766
-0.723166
-4.97051
-2.62936
-2.72507
-3.74169
-2.9626
-3.54848
-1.35564
0.0135618
0.752041
-0.774556
-2.03943
-4.9268
-1.72912
-0.234645
-2.10183
0.0544608
-2.20022
-0.184754
-1.95238
-0.191329
-2.18354
0.0282006
-0.21144
-2.33314
0.0410692
-3.34256
0.128664
-1.95099
-0.199022
-2.40959
0.263614
-1.09269
-2.64377
-3.80848
-1.08252
-1.66507
0.0392193
-1.93509
0.529441
-2.59328
-2.76667
-0.621366
-3.3911
-2.23507
-2.33628
0.181861
-1.64969
-1.55206
-0.363878
-3.02606
0.0676281
-3.20935
-3.42833
-1.57213
0.312181
-1.73082
1.50719
-1.7118
2.35666
-0.611007
-0.467563
-1.30731
-0.736096
-1.32556
-0.397832
-1.6864
1.79559
-0.0693618
1.31757
-1.21782
-0.114126
-1.97948
-2.70335
-2.1165
-1.89287
0.320356
-1.30278
1.13034
1.49592
1.61807
1.53757
-1.23128
-1.79443
-0.619586
-2.39825
-2.12089
0.881992
-0.373101
-2.16205
0.0844292
-1.93014
-0.650599
-0.587082
-2.0109
-0.816991
-0.867409
1.09054
0.742995
-1.05479
-1.21975
0.700601
-2.32528
-1.3595
0.369619
-2.18127
-1.80093
-0.0622505
-1.20611
0.182087
0.179465
-0.428587
-2.66528
-2.71317
-0.404053
-0.389872
-1.57414
-2.14646
-0.550398
-0.80076
-1.93972
2.56612
0.243401
-0.384065
-1.80096
-0.706036
-0.823609
-0.0965695
-1.95506
-0.371847
-0.533417
-1.9807
1.96276
-0.405733
0.713282
1.03036
-1.90956
-0.816354
-0.00605424
-1.14215
0.739901
-0.276896
0.333909
-1.23322
-0.802154
-1.89935
0.289617
-1.85276
1.62536
-0.172508
-1.66359
0.130036
-0.820032
-5.62269
-1.2918
2.37367
-0.904693
-0.846015
-0.0399548
-0.87405
-0.640529
-0.647997
-2.81522
-3.33651
-1.66493
-3.92404
-0.850894
-0.318328
-0.179119
-1.89374
-0.655279
-4.88413
-3.09756
-2.11967
-3.17922
-2.40316
0.0919242
-1.24877
-0.363832
-1.35043
-1.25997
-1.49274
-2.06124
-2.49338
-2.61108
-3.17055
-0.393832
-4.1346
-1.69603
-2.35001
1.2786
-2.41096
-2.92867
-2.74296
-1.15696
-1.05321
0.0941357
-0.79359
0.559336
-1.46828
-2.91244
-0.337766
-1.46933
-3.02792
-3.25342
-2.64431
-2.12224
-2.1742
-2.64787
-0.984284
-1.54412
0.676729
-0.863163
-1.90023
-0.281312
-0.659503
1.20308
-0.187757
0.587748
0.972315
1.3638
-1.47351
-1.81614
-2.64915
-0.602398
-2.92472
-1.64522
-2.33931
-2.33072
0.13795
-1.21122
-0.394375
-3.0291
-0.0340194
1.40727
0.639857
-1.17501
-3.00461
-0.976076
-0.596249
-0.0819099
-2.7633
-1.64824
-1.80053
-2.34509
-1.88001
-2.15582
0.0639362
-1.74681
1.32766
-0.688246
-0.918271
0.74885
-0.640434
-0.190754
-1.06877
-1.61979
0.701116
0.124536
-1.23877
-1.17264
-1.4292
-4.92989
0.860158
-0.483948
-2.15144
-0.135659
-0.779974
-1.21522
-0.409024
-0.41557
0.245569
-0.468162
0.0412367
-0.895193
1.86449
0.0244458
-0.329659
-0.559964
-0.833532
0.746998
-1.03981
-2.76157
-0.46306
-3.00076
0.875724
-1.88637
-0.103151
-0.153199
-0.628252
0.0145946
1.58552
-0.524236
1.70016
1.16328
0.262068
2.63234
-2.47048
2.74631
0.382054
1.05309
0.868978
-0.388133
0.787316
-0.302611
0.251914
0.431573
0.301782
-0.815916
-0.541555
-2.20393
-0.745411
1.88955
-2.9693
-2.8978
-1.4111
0.325868
-1.91872
-2.45591
-0.404364
-3.9536
-1.64517
-1.37758
-2.20938
-0.0505857
-1.69176
-0.64581
-2.54644
-2.26386
1.53298
-0.8235
-1.87121
0.916845
-4.43207
-0.433815
-0.78903
0.235756
-1.45169
-0.0345265
-1.84305
-0.382363
-3.71417
-0.209049
0.108948
-2.98595
-0.0729021
-3.77785
0.0235672
-0.571634
-0.180818
-0.65669
-0.0724207
-3.84837
-3.43213
-1.32034
-1.60967
0.776541
-0.661485
-0.391063
-1.60064
1.09067
-2.12861
-0.855238
-2.54395
-1.80188
-2.32921
-1.14443
1.84709
0.553983
0.167451
-1.01619
-2.25755
-1.23853
-1.60946
-1.63282
-0.873253
1.25801
0.61993
-0.17266
1.01235
-1.44642
-1.74184
-2.80002
-2.50874
-1.75758
-1.85796
-0.255311
-1.5725
-0.33375
-0.818061
-0.20712
-0.107691
-0.611672
-1.51921
0.016835
-0.505289
0.320279
-0.159116
1.23773
-1.1755
0.100928
-0.0791346
-1.17914
-1.09739
-2.65832
-0.88105
0.322055
-1.74727
-1.88447
-0.953981
-0.504792
-2.99485
0.781088
0.151615
-2.64498
0.0237872
0.646345
0.0363769
-0.227925
-0.991538
-1.3674
-1.19437
0.371151
-3.39858
0.544937
0.653915
-0.488111
1.16815
-0.872442
1.22745
-1.19771
0.510865
0.472318
-2.21781
-0.992999
-1.1133
0.658082
1.70265
1.24174
-1.75898
-1.43251
-1.53664
-1.13657
0.868733
-0.669346
1.82551
-1.39812
-0.988987
-2.38003
-0.181173
-0.801165
-0.367726
2.0112
-0.49421
0.523367
-0.594672
0.689803
0.427299
-0.81149
-1.29358
1.1074
1.17088
-1.9781
0.926955
0.857034
2.4291
-1.98048
-0.236889
0.721829
-0.0733773
0.75146
-0.425164
0.555146
-1.01383
-2.97583
0.0913831
-3.08014
-0.657062
0.469472
-1.2355
1.00086
-0.00384392
-0.0906254
-1.83108
-1.43126
-3.39096
0.0254831
-1.51519
0.237872
1.45458
-0.471091
-1.97615
-1.79198
-2.82573
0.632949
-4.28873
1.3065
-0.174439
-0.764638
-2.46835
0.574588
-1.40279
-2.67993
-2.04472
-1.68638
-0.285469
-1.16788
-1.63865
-0.925573
-0.223251
1.32682
-2.22677
-0.381064
-0.388625
0.0482402
0.101547
-2.40824
0.321278
-0.254875
-1.6468
-1.66978
-2.99884
-0.820707
-0.827726
-1.67499
-1.31229
-2.32903
0.129996
-0.319702
-0.889047
-0.784446
-1.91939
-1.44336
-0.787634
0.32525
-0.0421642
-0.755364
1.26342
0.596217
-0.976355
0.333908
0.655828
-0.85108
-0.537484
-3.09245
0.790873
-0.649152
1.40333
-2.51014
-1.63536
-0.738558
0.0714664
-0.213434
1.14173
-1.39491
-1.45848
-0.577239
-0.304835
-0.848458
-0.0659481
0.453471
0.749095
-2.35073
-2.2413
-2.18442
-0.177688
0.444527
-0.0408185
0.142387
-0.373758
-0.085891
2.83317
-1.04975
1.45339
-0.18147
-0.291888
-1.15142
0.216337
-0.867519
-0.829075
-0.433636
0.703358
-1.96138
-1.22526
-0.687029
0.214278
0.168864
0.175118
-1.32103
-0.496544
1.8569
-1.36716
-2.01944
-1.95498
-0.929995
-0.691697
0.211764
0.778146
-0.302073
-0.71685
-1.27826
-1.44859
2.0416
0.0230937
-1.51215
0.452245
0.134393
-0.500045
1.02285
-1.14738
-0.461661
-1.03175
-0.388649
-0.0671492
1.73504
0.823605
0.587322
-0.844007
0.168729
1.12548
-0.360651
-2.83092
-0.928894
-1.77978
0.146064
-0.767647
-0.269808
0.336056
0.102061
1.07269
-1.25329
-1.1804
0.0379819
-3.86
-1.58927
1.12722
2.17295
1.25271
1.5985
-1.94648
-0.264829
0.429536
-4.57663
-0.418283
-1.27308
0.644098
-0.345843
2.06448
-1.17022
0.0195822
0.608105
-0.438401
-3.38087
-2.09605
-0.140899
-0.69984
-0.0337324
1.64509
0.269615
0.651969
0.0179172
0.0492482
0.165033
0.417495
-0.614256
0.109282
-0.171304
-0.408184
1.71917
-0.29245
-0.199323
0.145358
-1.58449
-1.71454
-1.71763
2.09981
-0.120155
0.456762
1.29532
-0.53435
-1.52082
-2.2167
-1.57066
0.117124
0.101077
0.647929
0.555788
-0.000400011
1.55677
-0.643129
-1.60927
0.875693
-1.70876
-2.44391
1.16622
0.904535
-1.45878
0.179099
2.21023
-0.221252
0.586176
0.809073
-3.32443
-0.844768
0.637935
-1.52458
0.0570599
-1.2702
0.718303
1.50519
-1.96735
-1.65194
-0.294406
-0.730343
-0.794647
-1.39612
-1.54094
0.847706
0.303733
0.0739433
-0.172397
1.52279
-0.975442
-0.0533634
-0.0200134
0.0895843
-1.00848
0.790134
-0.720517
0.973043
-1.64895
0.183491
-1.04695
-2.17426
-1.98193
0.779371
1.12297
0.23231
-0.0917674
-0.666044
0.907392
-0.663572
0.685717
-0.112827
-1.31168
1.70842
0.0508558
0.233016
-2.5446
1.19051
1.0422
1.13294
-0.921409
-0.325112
-0.32051
0.361534
0.870312
1.09048
1.34175
1.20023
0.068449
-1.39219
0.536914
-0.242291
-0.365366
-0.419171
-0.200843
-1.58084
2.10157
-0.3349
1.14888
-1.41086
-1.13113
-2.12425
-1.73104
0.582227
-3.06089
0.0308747
-1.97243
-0.0820824
0.297591
-0.534043
0.468811
0.920803
-0.545801
-0.882308
0.687221
3.31569
-0.207016
-0.952724
0.565842
0.608163
0.68443
0.38308
-1.32279
0.0907802
1.46994
1.35117
-0.114426
-0.385286
1.24166
-1.0336
-1.95687
-2.25701
-1.12779
0.993304
1.09015
-0.487915
0.0677749
2.16312
0.957461
-0.239338
-1.63477
-0.571089
-1.92012
-0.340007
1.30647
-0.604733
0.466435
0.17291
0.0649938
3.09352
0.266994
-1.15285
-1.32216
0.0274981
0.227704
-0.867162
1.0626
0.278393
0.191702
1.1288
0.0477488
-0.816865
1.31756
2.27339
1.09238
1.12232
-1.76477
0.511799
0.0827815
0.774191
-0.257436
-2.39384
-0.0994051
-1.62567
0.0409372
0.228622
1.19264
-0.460272
-0.0699779
1.50251
-0.0357499
0.0868027
0.349126
1.09682
0.759653
1.49797
3.03804
-2.23564
-1.89547
-1.1581
-0.137689
-1.13509
-0.0957225
-1.14099
0.773362
-0.991893
0.220169
-0.668756
1.54314
-1.02744
-3.02005
1.13066
-1.58514
1.11523
1.74387
0.0906346
0.951359
1.44613
0.234155
0.276269
-2.4557
0.564393
0.0146579
0.70267
-0.588226
0.0990335
1.15616
-2.15336
-0.614514
-0.582238
0.764409
1.52549
0.492458
0.246638
0.996172
-0.511294
0.552508
-0.457844
2.86418
-0.589404
3.39632
-2.63841
-0.816416
0.112338
1.87893
-0.665987
-1.67278
0.118033
1.21017
-0.392177
2.22523
-1.15558
-0.391164
0.985028
0.898456
-0.214317
-0.290221
-0.539969
-0.304472
-0.207352
0.398047
-2.37441
-1.15415
-0.075684
-1.16451
0.2302
-1.13138
0.330361
-0.137915
-0.924205
0.072216
-0.786799
0.103395
-0.0125874
-1.4035
-1.51886
-1.49368
0.464595
0.146075
-0.108984
-0.705942
-1.40728
1.1973
-1.37974
0.586491
2.07711
0.328846
1.70512
0.207641
-0.184703
0.431994
-4.44792
1.06015
1.82409
1.53103
1.34358
0.946061
0.669841
1.24997
0.0760901
1.86549
1.56343
1.13189
2.63516
-1.12343
0.208008
1.10058
1.1948
0.372351
0.182243
0.797628
-0.672195
-0.00311163
-1.25405
0.170243
2.71935
0.352637
3.0157
-0.0104349
-0.00915791
-0.107233
-0.0716364
1.91219
-0.125431
1.32293
0.139909
2.35838
-0.148449
-0.204361
0.119568
0.272161
-0.627131
-1.49198
0.542282
1.41087
0.488339
1.38229
1.65555
-0.460775
-0.32956
0.603486
0.757126
0.89518
0.70609
1.45216
-0.209845
1.87186
-0.12807
0.417581
1.50808
0.589774
-1.80155
-0.585448
-0.655827
-1.23275
-0.283149
-1.03597
0.116213
0.874185
1.66672
0.535426
0.122071
1.53267
0.412197
1.37554
-1.35758
1.88299
-1.70544
0.616173
-0.0661049
-0.632878
-1.20671
-1.3729
1.6318
0.227694
1.66942
-0.088975
0.356126
0.283873
0.923596
0.383896
3.3552
-1.77602
0.710501
-0.507679
0.973527
-0.476886
2.06574
-0.752833
0.806639
0.247683
0.0822596
0.385402
1.19583
-1.57888
1.29424
0.897688
0.644265
-0.262341
0.291188
-0.623028
0.593069
-0.0908313
0.708929
0.680374
1.55605
-0.693338
3.5678
-1.86714
0.0989758
-0.771763
0.649427
0.138125
-1.2831
-0.374537
0.677189
-1.00777
1.39165
0.0888755
-0.878694
-1.77906
-1.17636
-1.6006
-3.73468
1.52407
-1.60546
0.281777
0.66054
-1.07115
1.69344
2.18429
-0.0902793
-1.76903
0.567879
-1.14837
1.78652
-0.435976
0.0215004
0.558272
1.25724
-0.79902
0.635407
-0.218845
0.24487
1.09982
0.43367
1.43091
0.191609
-0.660006
-0.465107
0.0637008
1.18845
0.80498
-0.231112
3.70831
2.78199
2.67197
2.57532
0.165144
3.16159
0.581176
2.32017
3.33621
1.51031
2.22254
2.46541
1.68197
2.5544
2.08471
2.41163
2.87784
-0.274811
1.30308
1.72979
0.601079
1.85686
2.18782
2.35345
1.10376
0.775261
4.30378
2.94972
2.42527
2.65626
3.04879
1.92884
0.901408
2.02262
1.69487
3.28857
1.09133
0.0249617
-0.285061
4.3355
4.23465
2.94873
1.41633
-0.0737145
3.30392
-0.643634
0.525858
1.78274
-1.9149
2.52866
1.1361
3.02774
3.58531
2.65274
1.15218
1.45623
3.55271
-0.670984
0.883626
2.46893
2.34529
-0.143299
2.08301
0.754346
1.57425
-0.565821
0.619167
-0.0457226
2.59953
0.332322
0.798256
0.245135
1.6861
0.769203
0.435446
1.39928
1.34965
-0.0446478
2.03238
-0.661723
3.20432
2.00069
0.537283
0.718476
1.88301
-1.93781
0.787606
1.79287
2.54475
-0.0783504
2.88906
-0.211883
1.87165
1.89521
0.826587
0.0159395
-0.193886
0.196578
0.448558
-0.698182
0.328381
0.190203
-0.22845
1.01185
-0.200043
-0.651449
3.04048
0.40191
-0.524036
1.77627
-1.40332
-0.177397
1.06888
0.400727
-0.131436
-0.864795
-0.65126
0.777348
-1.52884
0.227054
0.709136
-0.874381
1.04924
1.13671
1.05912
0.635982
1.11756
-0.0471003
0.0734493
-1.39143
0.571932
-1.22518
-0.167641
-0.513489
2.06174
1.87233
-0.167543
1.28468
-2.16345
2.49312
0.967252
1.65925
-0.0726819
-0.765282
-2.20168
-0.148695
-1.0313
-0.92981
0.344214
2.24491
-0.538184
-0.043999
-2.20439
1.53624
-1.27843
1.70379
0.0818156
0.866006
2.17968
3.64195
3.15711
1.45322
4.66944
1.67003
2.34859
4.68793
2.63269
2.70376
1.50218
0.93604
3.32025
3.63605
4.09069
1.44696
3.89149
2.23869
-0.115734
1.00125
0.526645
2.59822
-0.149445
3.5961
0.523201
2.25637
0.179576
2.95568
1.01769
-0.363862
1.73959
-0.0963334
1.53646
0.0455575
1.94318
0.186587
2.19632
-0.0653402
0.0909648
-0.542095
-0.627265
0.475054
3.70527
1.34884
2.72046
3.37636
3.50335
1.9841
1.70908
1.11009
2.74642
2.36688
1.58312
2.5227
1.45396
0.889995
4.01627
2.9658
1.58141
0.867366
-0.951638
2.01879
3.43346
2.39805
2.96656
2.07532
1.16791
2.76611
2.3824
2.74885
1.41494
2.00118
2.12857
1.46443
1.54153
1.51622
1.81472
2.76245
1.27666
1.74698
-0.226785
2.44465
1.28175
2.11843
3.67566
0.380471
-0.174156
1.07937
-1.77103
0.755092
-0.0455232
2.23342
1.53747
3.4439
3.85475
-1.19995
0.870086
0.0485863
0.990436
0.534665
-1.9696
-0.0395612
0.531626
0.624109
1.94157
1.43457
-1.71202
-0.355377
-2.22817
0.735541
-0.619792
2.47187
1.68175
0.579066
2.46038
1.64349
3.91365
1.1734
2.94988
2.38025
-0.428331
-2.49281
1.13589
0.598194
1.6439
2.25951
1.17849
-1.28553
1.36822
0.888498
0.532629
1.33268
-1.76382
-0.365811
-0.578086
0.754134
1.48299
0.533091
-0.418128
-0.625208
-0.146274
0.113549
-1.11649
1.33778
-1.25677
1.50778
-0.249448
1.28573
-0.0904642
0.0416887
-0.238021
0.227344
1.73503
-1.68251
-0.431635
0.664513
0.72011
-0.488528
0.0995007
1.16113
2.16307
3.62666
2.17579
5.44611
4.49505
3.99137
5.68682
3.73789
3.3112
1.56721
2.21331
3.60802
5.10592
3.95282
5.41885
4.99121
2.45295
3.08959
2.73505
1.02948
2.25997
4.17207
2.99056
4.92256
2.90827
5.53357
3.86151
1.50275
3.15537
1.53537
4.65189
4.34062
3.14257
5.16512
2.02879
2.58685
4.40045
3.58722
1.60467
-0.657875
1.88401
2.28323
2.55533
5.51754
2.03103
2.63971
2.97959
-0.0816296
0.837427
2.8061
1.92582
0.925841
3.49877
0.664662
3.54164
4.43293
2.06779
1.46363
-0.640382
1.7091
1.20018
3.64659
3.10706
-0.544054
3.049
2.93182
1.52845
2.65054
2.39934
0.475393
0.466401
0.320443
0.494503
2.87528
4.12253
3.09148
0.599255
1.17154
0.185958
0.337192
-0.466138
0.499836
1.86353
2.23707
2.58879
2.76919
1.65346
0.367696
3.33784
-0.597266
1.40128
1.94484
2.56372
0.941044
2.30709
3.65422
4.33789
-0.459995
-0.0490251
-1.28597
-0.935679
0.902285
1.25519
3.63023
2.0239
2.71989
2.08761
1.62571
0.885979
0.112011
1.83631
-0.0473371
1.72916
2.51706
0.498254
2.5018
0.907468
0.696534
1.36415
2.64708
1.09825
2.16128
3.45075
-0.440778
2.35777
0.891412
0.622674
2.79641
2.15547
0.845663
-1.31351
-2.08187
2.77154
2.10691
0.818813
-1.03527
2.29186
0.262563
-0.0731029
1.37024
-0.284606
-0.484292
-0.0105618
-0.981034
0.3769
-0.91232
2.04133
0.945173
-0.342472
-0.573163
-0.677985
-0.0961737
-0.627569
-0.195055
0.0488876
0.786383
1.52695
-0.360847
-0.375018
)
;

boundaryField
{
    hotSide
    {
        type            calculated;
        value           nonuniform List<scalar> 
400
(
-4.13611
-4.6447
-3.87692
-4.31052
-4.11272
-4.15935
-4.89242
-5.15598
-4.4244
-2.84889
-4.38975
-4.97731
-2.34349
-0.40759
-3.27316
0.950867
-3.89871
1.71968
1.37993
1.6585
-1.94229
-0.510435
-0.81343
-1.03307
-2.49233
-1.8015
-2.08292
-2.54882
-3.31486
-4.36035
-2.14157
-0.596764
-2.22588
-2.32691
-0.963041
-0.718729
1.6427
1.36681