/*--------------------------------*- C++ -*----------------------------------*\
| =========                 |                                                 |
| \\      /  F ield         | OpenFOAM: The Open Source CFD Toolbox           |
|  \\    /   O peration     | Version:  2212                                  |
|   \\  /    A nd           | Website:  www.openfoam.com                      |
|    \\/     M anipulation  |                                                 |
\*---------------------------------------------------------------------------*/
FoamFile
{
    version     2.0;
    format      ascii;
    arch        "LSB;label=32;scalar=64";
    class       volScalarField;
    location    "0";
    object      relativeErrorField;
}
// * * * * * * * * * * * * * * * * * * * * * * * * * * * * * * * * * * * * * //

dimensions      [0 0 0 1 0 0 0];

internalField   nonuniform List<scalar> 
3200
(
0.0143342
0.00815106
0.00316395
0.000312722
0.0064186
0.00826027
0.0131441
0.00956301
0.0119924
0.0162802
0.020386
0.00859374
0.00810778
0.00800769
0.00278391
0.0151212
0.00386044
0.00178232
0.00427119
0.0106292
0.0110563
0.00916604
0.000766809
8.78014e-05
0.00164425
0.00144327
0.0047707
0.0122149
0.0104851
0.0123808
0.00750496
0.00754116
0.0121505
0.00648615
0.00593004
0.00830843
0.00360096
0.00596536
0.00101321
0.00847976
0.00830268
0.00201732
0.000856248
0.00412997
0.00110566
0.0085171
0.000605829
0.00209253
0.00806625
0.00810494
0.0069221
0.00958307
0.00858434
0.00570295
0.00215784
0.00598474
0.00972677
0.000845964
0.00309993
0.000290024
0.00885496
0.00219923
0.00410589
0.00300596
0.000690882
0.00305661
0.00287813
0.00551579
0.0177151
0.0047389
0.0120271
0.00178976
0.00895231
0.0102698
0.000794776
0.00171671
0.00725943
0.00358426
0.00115193
0.00843138
0.0115314
0.00821817
0.00216447
0.00303351
0.00272406
0.0034037
0.00974586
0.00607281
0.00422577
0.00584061
0.00638055
0.00770843
0.00860662
0.00571709
0.000415609
0.00567073
0.00847071
0.00949352
0.00757484
0.00227448
0.00614252
0.00473098
0.00106965
0.00445769
0.0049559
0.00531487
0.00408569
0.00385192
0.00532984
0.00545307
0.00722027
0.00393542
0.00614832
0.00431631
0.000362079
0.000499857
0.00135686
0.00902545
0.00770715
0.0091774
0.00112954
0.00466855
0.00417527
0.0011679
0.00558391
0.00792753
0.00521835
0.00431985
0.00103384
0.000390327
0.00643742
0.00278143
0.00324459
0.00780472
0.000855948
0.00416142
0.00674641
0.0029745
0.00618352
0.00269816
0.00497796
0.00507343
0.000102782
0.00515688
0.000855942
0.00103067
0.00347174
0.000690656
0.00111022
0.00108861
0.000319404
0.000484439
0.000915078
0.00374862
0.000186244
0.00304939
0.00542519
0.00126862
0.00747425
0.0025253
0.0158031
0.00398551
0.000432091
0.0016918
0.000311071
0.00617833
0.0106141
0.00547724
0.00952054
0.00942785
0.0139353
0.0109559
0.00950813
0.0146635
0.00941162
0.00708987
0.00166741
0.00184895
0.00353203
0.00722031
0.0172619
0.000752665
0.00338906
0.00138872
0.00207136
8.28977e-05
0.00658555
0.000424057
0.0129871
0.000641856
0.00181873
0.0105044
0.00166043
0.0105802
0.00182138
0.0108383
0.00133836
0.00380486
0.000573739
0.00571437
0.00556617
0.00121499
0.00393835
0.00741716
0.00035526
0.000496989
0.00565721
0.00951754
0.00528367
0.00422081
0.0095175
0.0151403
0.00789572
0.00634154
0.000454672
0.00762209
0.00320566
0.000624654
0.0026243
0.00662389
0.0111383
0.00610612
0.00362298
0.00415517
0.00768372
0.00585129
0.00827414
0.0135287
0.0138462
0.0102174
0.00512092
0.00336381
0.00206432
0.0106145
0.00965567
0.00439382
0.000684134
0.00308651
0.0010069
0.0040365
0.00581103
0.00213768
0.00049857
0.000457862
0.00283552
0.000415431
0.0077367
0.00184913
0.00175815
0.0119209
0.00322164
0.00425965
0.00651066
0.00326584
0.00306907
0.00566147
0.00366135
0.00439849
0.00194062
0.00705409
0.00363763
0.00632902
0.00215095
0.00222053
0.0038947
0.00261106
0.00176216
0.00127289
0.0015303
0.00480886
0.00114183
0.011278
0.00271482
0.000313751
0.00453598
0.00256987
0.00881569
0.00459708
0.00525421
0.00788018
0.00647478
0.00243226
0.00424208
0.00521582
0.000150332
0.00344187
0.00529035
0.00327541
0.00457902
7.34914e-05
0.00115328
0.000764637
0.00444286
0.000921995
0.00714557
0.00433507
0.00072534
0.00737892
0.00510933
0.00665876
0.00276663
0.00491887
0.00142758
0.00101436
0.00175548
0.000452115
0.00373944
0.00155072
0.0050211
0.000946395
0.00934602
0.00270404
0.00192114
0.00219471
0.00248505
0.00162354
0.00315659
0.00661706
0.00190352
0.00239698
0.0135462
0.00484332
0.00156863
0.00293718
0.00513871
0.00384146
0.00903673
0.0102715
0.00906672
0.0135679
0.00992875
0.00598596
0.00745676
0.00583731
0.00814514
0.00560879
0.00440741
0.00476588
0.00191482
0.00718458
0.0153572
0.00395692
0.00474972
0.00585049
0.00664537
0.00758255
0.00854034
0.00663588
0.00708608
0.0134429
0.00931213
0.0108703
0.00627421
0.00867578
0.00742365
0.00727175
0.00185127
0.00517102
0.00885137
0.00204005
0.00814665
0.000469863
0.00234219
0.00024008
0.00350586
0.00319424
0.0067973
0.00262375
0.0127905
0.00556738
0.0042142
0.00868443
0.00686685
0.00334833
0.000805791
0.00402336
0.0037006
0.00526244
0.00430834
0.0095533
0.0061376
0.00297026
0.00226152
0.000327502
0.00191885
0.00820678
0.00260525
0.0080044
0.0084244
0.00193587
0.0074322
0.00425497
0.0106194
0.00641586
0.00190522
0.00442351
0.00705507
0.00541502
0.00220864
0.00226285
0.00550073
0.00356311
0.00300481
0.000672853
0.00187759
0.0069337
0.00599821
0.0055999
0.00998631
0.00530089
0.0044897
0.00933158
0.00312688
0.00304705
0.00492586
0.00446812
0.000931218
0.00294268
0.00243548
0.0085375
0.00520884
0.00202355
1.39464e-05
0.000952541
0.00455544
0.00435753
0.000793934
0.00378276
0.0034518
0.000632083
0.00132684
0.000387272
0.00807937
0.00340305
0.00455114
0.00592622
0.00473956
0.00249464
0.00162099
0.00411434
0.00500223
0.000883379
0.00586578
0.00775458
0.00564912
0.00888773
0.00506041
0.00462132
0.0027263
0.000923285
0.00238546
0.00596993
0.00186912
0.000212819
0.00162641
0.0049078
0.00161028
0.00513135
0.00166777
0.00148885
0.00192704
0.00464325
0.000885482
0.00397594
0.00343041
0.00432216
0.00394853
0.00185919
0.00155799
0.00200534
0.00219253
0.000505374
0.00563969
0.000808618
0.000414396
0.0027942
0.00609848
0.00541309
0.00385208
0.000709558
0.0147737
0.00544858
0.000976323
0.003348
0.00193307
0.00713435
0.00670338
0.00584119
0.00645436
0.00692014
0.00731291
0.00923279
0.00600044
0.00648485
0.00846881
0.00665761
0.0058904
0.00185502
0.00345601
0.00515634
0.017318
0.00144765
0.00467769
2.23255e-05
0.00431481
0.000212527
0.00124455
0.00174231
0.0136487
0.000782795
7.9062e-05
0.00763895
0.000326488
0.0021112
0.000113854
0.0097862
0.0010159
0.000991454
0.00184466
0.00434726
0.0149037
0.00761296
0.00287147
0.00557367
0.00298888
0.00208437
0.000282551
0.00492297
0.00202053
0.00969583
0.00367962
0.000524147
0.0050856
0.000537311
0.000742293
0.00300293
0.00996899
0.00232003
0.00484686
0.0014061
0.00764836
0.00688529
0.00250624
0.00628338
0.00247317
0.0040736
0.00965283
6.06688e-05
3.41078e-05
0.00936184
0.00432284
0.00641759
0.00516924
0.00145457
0.000189881
0.00328932
0.00463502
0.000464432
0.00162691
0.0010105
0.00737941
0.00177412
0.00118079
0.00428098
0.000431524
0.00446095
0.00317948
0.0103066
0.000136477
0.00368924
0.00819929
2.04423e-06
0.00477398
0.00564751
0.00302351
0.00190403
0.000150193
0.00130268
0.00541195
0.00384942
0.00867172
0.00339191
0.000725939
0.00126183
0.0117817
0.0038808
0.00211372
0.00666395
0.00238912
0.00304777
9.51654e-05
0.00501133
0.00158506
0.00656286
0.00220495
0.0051349
0.000695778
0.00100496
0.00249152
0.00332236
0.0021443
0.0064075
0.00116397
0.00122249
0.00248357
0.000527089
0.00277071
0.00613898
0.00073599
0.00226133
0.00186361
5.75695e-05
0.00817463
0.00166497
0.00101219
0.00408238
0.00478464
0.000961462
0.00423834
0.00712647
0.0012815
0.00308817
0.00380274
1.12346e-05
0.00477695
0.000804817
0.00080666
0.00797249
0.00790886
0.00501217
0.00489754
0.00141134
0.00191095
0.00722835
0.00171194
0.00149141
0.00312492
0.00398201
0.00327735
0.00257178
0.0141547
0.00963247
0.00563189
0.00355286
0.000283496
0.00370816
0.000121975
0.00452563
0.00811034
0.00142766
0.000285431
0.00605263
0.00346729
0.00634253
0.000812
0.00417943
0.000870524
0.00519183
0.0100849
0.011647
0.0147854
0.00250569
0.00410868
0.00182716
0.00595529
0.00041542
0.00730984
0.00685214
0.00126295
0.000943456
0.00376282
0.00164051
0.00367577
0.00185099
0.00126205
0.00417026
0.00279552
0.00547002
0.00232411
0.00502664
0.00636935
0.00191039
0.00414342
0.00206527
0.00517622
0.00162595
0.000712533
0.00472607
0.00299024
0.00376054
0.00476476
0.00701321
0.00562083
0.00379544
0.00431597
0.000371751
0.00037978
0.00417851
0.00585037
0.000309281
0.00313199
0.0100736
0.00181143
0.00618435
0.00365388
0.00222816
0.00278492
0.00222935
0.000364405
0.00874793
0.00161112
0.00137663
0.00113165
0.00155396
0.00392226
0.00295139
0.00462648
0.00216806
0.00365428
0.00594969
0.00415049
0.00479128
0.000388664
0.00484662
0.00255255
0.00408828
0.00185151
0.00233526
0.00155498
0.00717909
0.00136346
0.00392037
0.0046486
0.00634913
0.00090919
0.00713322
0.00662984
0.00125729
0.000786048
0.00936131
0.00864811
0.00251549
0.00151288
0.00708426
0.00150862
0.00157584
0.00764571
7.32172e-05
0.000207565
0.00526923
0.00184892
0.00324668
0.00557811
0.00367501
0.00188901
0.00136176
0.000270368
0.00798732
0.00164621
0.00267148
0.00341161
0.000861339
0.0053228
0.00387943
0.00440224
0.00756991
0.000241665
0.00629675
0.00490369
0.00513295
0.00501006
0.00246256
0.00263256
0.00587948
0.000979017
0.000400811
0.00238667
0.00418811
0.000944365
0.00202931
0.00137283
0.00570689
0.00161094
0.000412235
0.00302313
0.000873234
0.00404948
0.00142527
0.00318988
0.00800736
0.00773459
0.00180578
0.0120062
0.00307482
0.00222603
0.00382932
1.78976e-05
0.00347294
0.00283915
0.00384811
0.0142362
0.00757979
0.00283027
0.00310596
0.00190064
0.00271049
0.00645009
0.00216297
0.0013006
0.00686041
0.00490515
0.00289307
0.00354762
0.00356845
0.000650232
0.00257048
0.00232649
0.000792665
0.00425317
0.00964823
0.00236148
0.00208919
0.000141963
0.000483506
0.000302394
0.0019438
0.00240485
0.000427228
0.000405897
0.00107516
0.000186695
0.00298395
0.00125172
0.00137876
0.000323831
0.00316829
0.000632705
0.000897926
0.00064746
0.0117037
0.0074145
0.00956271
0.00118395
0.0014361
0.00254543
0.000478726
0.00172663
2.66491e-05
0.00332579
0.00103736
0.00138547
0.00417038
0.00203241
0.00590435
0.00454419
0.00543497
0.00331715
0.000975626
0.00786054
0.00363881
0.00624542
0.00163104
0.00180117
0.00135921
0.00582451
0.00324616
0.00710429
0.00595417
0.00294017
0.00307488
4.93029e-05
0.00390352
0.000962393
0.000574868
0.00507692
0.00314131
4.15295e-05
0.00214665
0.00139086
0.00106581
0.00340899
0.000229423
0.000415491
0.000122704
0.00219566
0.00223217
0.00100413
0.00403918
0.0041416
0.00187335
0.000808255
0.00471586
0.00329552
0.00255703
0.00178997
0.00616345
0.00260682
0.00149336
0.000942646
0.00183478
0.00287052
0.00627573
0.00174796
0.00822016
0.00328175
0.00105829
0.00186408
0.00453069
0.0010424
0.000807099
0.0016127
0.000645204
0.0020235
0.000617964
0.00337282
0.00421059
0.000938411
0.0047324
0.00538462
0.00761307
0.00509804
0.000877388
0.00443671
0.00120924
0.000341154
0.00215401
0.00231191
0.00205847
0.000670703
0.00717525
0.000555804
0.000167346
0.000789938
0.000946361
0.00495475
0.00454661
0.00128554
0.0023436
0.0036301
0.001992
0.000952299
0.00311656
0.00344359
0.00084685
0.000702729
0.00043711
0.00156866
0.00288682
8.2234e-05
0.00600349
0.00372782
0.00370503
0.000748357
0.000527116
0.0093032
0.000475351
0.000771975
0.000600973
0.00369822
0.00471989
0.0162958
0.00833174
0.00125897
0.00688834
0.00437425
0.00526629
0.00431584
0.00198648
0.00297513
0.00313878
0.00486199
0.000780606
0.00306893
0.00161819
0.00133547
0.00218243
0.000349975
0.000977859
0.00703068
0.00840933
0.0103472
0.00907863
0.00318904
0.00292805
0.00370657
0.00183427
0.00339037
0.00208879
0.00643973
0.00197861
0.00428843
0.00382964
4.04914e-05
0.0052501
0.00474928
0.00254953
0.00163901
0.00151259
0.00457888
0.00548873
0.00767189
0.00196729
0.000800469
0.00124254
0.00383386
0.00172099
0.00101166
0.00173232
0.00381237
0.00152815
0.00619394
0.00515728
0.00215437
0.00683157
0.00622271
0.0028336
0.00216741
0.00124575
0.00511738
0.0091758
0.0119877
0.000935069
0.00690623
0.00108928
0.00535904
0.00933101
0.00320318
0.00312593
0.00590243
0.0081524
0.00365665
0.00374504
0.00504165
0.00248755
0.00690621
0.00230617
0.00487636
0.0018107
0.00276882
0.00245517
0.000283257
0.0012691
0.00203063
0.00348244
0.00324788
0.00863698
0.00625721
0.00117384
0.000976156
0.00603892
0.004503
0.00183341
0.00432077
0.00436255
0.00277613
0.0041214
0.00444885
0.00313735
0.000383581
0.00442183
0.00434977
0.0043533
0.00044015
0.00775241
0.00637629
0.000580322
0.00121445
0.00141967
0.0037348
0.0076082
0.000228983
0.00132571
0.000915765
0.00605381
0.00237944
0.00254525
0.00118651
0.00652725
0.00389636
0.00223084
0.00323261
0.00443614
0.000490895
0.0045009
0.00854829
0.00176165
0.00141547
0.0059233
0.00732237
0.0028187
0.00126044
0.00112705
0.004673
0.000656793
0.00111753
0.00256207
0.00239601
0.00054701
0.00400166
0.000429896
0.00837212
0.00344555
5.43259e-06
0.00496667
0.00190543
0.00874872
0.00608841
0.0065802
0.00111065
0.0034483
0.00222806
0.00402753
0.00499224
0.0032086
0.00631195
0.00162686
0.000193346
0.00357877
0.00345698
0.00796209
0.0169817
0.00960547
0.00358966
0.000480583
0.00394756
0.00645278
0.00283078
0.000736518
0.00485346
0.00212159
0.00610863
0.0003334
0.000933162
0.000746929
0.000353849
0.00312229
0.00146753
0.00583159
0.0070424
0.0153782
0.0140014
0.00235665
0.00161946
0.00162212
0.00247197
0.000835946
0.00183458
0.00027309
0.00379858
0.000250131
0.000676886
0.00625948
0.00132757
0.00453646
0.00108633
0.00575187
0.00020535
0.00780747
0.000859823
0.00395622
0.00940962
0.0021893
0.00231793
5.48907e-05
0.00371747
0.00128938
0.00433947
0.000392078
0.00934051
0.00536158
0.0060337
0.0055519
0.00424411
0.00354186
0.000612312
0.00255129
0.00869508
0.00485689
0.01029
0.00600261
0.0112306
0.00629018
0.00554159
0.00694868
0.00267468
0.00160626
0.00376443
0.00511781
0.00241813
0.00464441
0.00515176
0.00102447
0.00666646
0.00387977
0.00132358
0.00253216
0.00489096
0.00298383
0.000966514
0.00882078
0.00633102
0.0020449
0.00400224
0.00343696
0.000665895
0.0012397
0.00167448
0.00219796
0.00285803
0.0034908
0.00361778
0.00126265
0.00211993
0.000721385
0.000631531
0.00322778
0.00355056
0.00421668
0.00547859
0.00405237
0.0069776
0.00284048
0.00440585
0.00486226
0.00422403
0.00336324
0.00106457
0.00157432
0.000378101
0.00353868
0.00439978
0.00353024
0.00433712
0.00465349
0.00018385
0.00235547
0.00138702
0.00223733
0.00317777
0.00243926
0.00249949
0.00160186
0.00339582
0.0114053
0.00231063
0.000817039
0.00251055
0.00210016
0.00143448
0.000257054
0.00294745
0.00437323
0.00133293
0.00223757
0.000265446
0.00466593
0.00226032
0.0029059
0.00325234
0.0033856
0.00451215
0.00141678
0.0109019
0.00217322
0.00669063
0.0032418
0.00281905
0.00737001
0.00285996
0.00416404
0.00125819
0.000195392
0.00497821
0.00079554
0.00841576
0.0027784
0.00513546
0.00394748
0.00124868
0.00334862
0.0147854
0.0117308
0.00796312
0.00830557
0.00308847
0.00435415
0.00113733
0.00296863
0.00944082
0.0062369
0.0105677
0.00280372
0.00909221
0.00353043
0.00375483
0.000668918
0.00439484
0.00266547
0.00778998
0.0142882
0.0121097
0.00686869
0.00169748
0.00162858
5.16794e-05
0.00247659
0.000836144
0.006591
0.000404934
0.0088142
0.00921049
0.0102659
0.00434232
0.00918314
0.00728466
0.00030538
0.000682588
0.00590561
0.00553454
0.0121786
0.00905553
0.00636305
0.00741762
0.00760256
0.00696209
0.00177194
0.0048605
0.00173912
0.00306136
0.00711863
0.0035281
0.00527394
0.010994
0.00228122
0.00171064
0.0009487
0.00534294
0.00501442
0.0127414
0.00980184
0.0115811
0.00382244
0.0084774
0.00203887
0.00400386
0.00184505
0.00767923
0.0050372
0.00641632
0.000414553
0.00912346
0.00373603
0.00179146
0.00194256
1.53106e-05
0.00116105
0.00389144
0.000246573
0.00827142
0.00425819
0.00871123
0.00165761
0.00024512
0.00100974
0.00247834
0.00155332
0.000587715
0.00654459
0.00421391
0.00214548
0.0022962
0.00293295
0.00736863
0.00403868
0.00462266
0.00650936
0.00117984
0.00408361
0.00747419
0.00771202
0.00881009
0.000542409
0.00259454
0.00366529
0.000273033
0.000528631
0.00119317
0.00133175
0.00127369
0.00201621
0.00152317
0.000941716
0.00754273
0.000665039
0.00448405
0.000607917
0.00182195
0.00415432
0.00159577
0.00293694
0.000716
0.00318646
0.00202619
0.000669388
0.00178867
0.00595728
0.00047867
0.0029402
6.40145e-05
0.00759469
0.00295081
0.00518221
0.00696573
0.000622581
0.00308509
0.000138642
0.00450414
0.00329808
0.000969698
0.000372236
0.000339486
0.00644062
4.74434e-05
0.00149949
0.000528526
0.00106647
0.00491745
0.00292466
0.00131301
0.00254665
0.00285285
0.00991939
0.00792164
0.00246632
0.00268083
0.00367737
0.000711663
0.00111748
0.00336753
0.0037498
0.0101635
0.0146421
0.00783225
0.00501233
0.00125629
0.00454203
0.000863288
0.00176075
0.0020322
0.00627627
0.0107668
0.00681472
0.0046169
0.00642728
0.00311361
0.00347147
0.00312738
0.0030797
0.00939521
0.0169318
0.0082684
0.000906538
0.0120155
0.000271517
0.0048912
0.000841968
0.00211961
0.000426238
0.00303238
0.000471504
0.000580015
0.00901143
0.00194908
0.0110383
0.000518108
0.00152201
0.000837938
5.71298e-05
0.00111672
0.00716815
0.00993988
0.0144794
0.00324307
7.15031e-05
0.00238405
0.00584483
0.00180552
0.00428722
0.00133035
0.00845727
0.00655658
0.0066727
0.0109273
0.000310412
0.00650574
0.00616122
0.00236419
0.00644526
0.0100006
0.00577842
0.00299666
0.00135718
0.00389264
0.00103977
0.00316574
0.000263597
0.0029562
0.000191275
0.00443132
0.00388812
0.00726039
0.00449481
0.00118473
0.000529764
0.00342513
0.00583077
0.000943658
0.00211874
0.00214905
0.00305705
0.00745941
0.00882277
0.00174082
0.000724917
0.00556519
0.000184678
0.00033781
0.00117661
0.000467488
0.00721412
0.00581237
0.00311595
0.00318003
0.00150446
0.000313873
0.00620003
0.00322741
0.00261339
0.00112673
0.0015637
0.00597815
0.00452414
0.00353817
0.00513436
0.00413837
0.00519428
0.00269649
0.0033388
0.00141201
0.000789739
0.0113611
0.00362583
0.00504359
0.00467527
0.00109934
0.00484632
0.00138632
0.00518413
0.000835371
0.00658529
0.00105935
0.00190835
0.000934627
0.00877728
0.00142518
0.00053227
0.00592005
0.00211193
0.00480077
0.00519685
0.00213495
0.003171
0.00241952
5.06928e-05
0.00547621
0.00365794
0.00582257
0.000331629
0.000742499
0.01116
0.00334595
0.000732627
0.00151809
0.00143672
0.00342143
0.00083234
0.00228128
0.000193759
0.00502479
0.00434145
0.00744943
0.00414081
0.003965
0.00708053
0.0043821
0.00749826
0.000630273
0.00270162
0.00198236
0.00835955
0.0145014
0.00818651
0.00196
0.00151693
0.0063785
0.00513371
0.00493759
0.00203924
0.0139972
0.00739915
0.00766847
0.0105367
0.00835416
0.0100254
0.003839
3.85062e-05
0.00214122
0.00221151
0.00583855
0.0141352
0.0050529
0.000684415
0.00611624
0.000158088
0.00637112
0.000533751
0.00562877
0.000550676
0.00627706
8.10177e-05
0.000607448
0.00670711
0.000118204
0.00963668
0.000371709
0.00564943
0.000577716
0.00701181
0.00076891
0.0031931
0.00787289
0.0113234
0.00321209
0.00493015
0.00011588
0.00570614
0.00155842
0.00762231
0.00812349
0.00182347
0.00995157
0.00656263
0.0068669
0.000535314
0.00486455
0.00458582
0.00107741
0.008979
0.000201073
0.00955712
0.0104088
0.00476702
0.000945015
0.00523014
0.00454636
0.00515495
0.00708637
0.00183503
0.00140302
0.00392109
0.00220781
0.00397761
0.00119481
0.00507092
0.00540726
0.000209226
0.00398139
0.00368651
0.000346054
0.00600995
0.00837238
0.00654828
0.00584862
0.000988447
0.00401406
0.00347814
0.00459764
0.00496826
0.00471782
0.00377668
0.00550401
0.00190112
0.00736377
0.00651843
0.00271395
0.00114958
0.00667094
0.000260871
0.00597168
0.00201493
0.00185562
0.00635134
0.00257794
0.00273422
0.00343406
0.00233739
0.00331541
0.00383121
0.00219948
0.00729807
0.00426689
0.00116039
0.00685131
0.00566069
0.000195835
0.00379797
0.000573967
0.000566285
0.00135367
0.00842431
0.00875644
0.00130346
0.00125697
0.0050719
0.0069116
0.00177123
0.00257555
0.00623617
0.00824749
0.000782166
0.00123418
0.0057883
0.0022699
0.00264904
0.000310769
0.00629529
0.0011981
0.00171976
0.00638963
0.0063346
0.00133772
0.00235136
0.00339593
0.00629231
0.00268944
1.99413e-05
0.00376131
0.00243626
0.000911638
0.00109928
0.00405996
0.00264097
0.00625397
0.00095376
0.00610258
0.00535466
0.000568441
0.00548299
0.000428668
0.00270367
0.0160806
0.00368708
0.00675825
0.00256918
0.00239645
0.000112908
0.00246474
0.00180312
0.00182191
0.00791026
0.00937499
0.00468112
0.0110463
0.00239944
0.000899556
0.00050738
0.00537791
0.00186569
0.0139403
0.00885887
0.0061769
0.00924852
0.00697575
0.000266226
0.00360851
0.00104914
0.0038868
0.00362093
0.00428522
0.00591388
0.00715374
0.00749562
0.00911155
0.00113353
0.0119224
0.00490094
0.00680597
0.00371143
0.0070136
0.0085344
0.00814863
0.003432
0.00311845
0.00027818
0.00234059
0.0016467
0.00431566
0.00854921
0.000990556
0.00430695
0.00887558
0.00954122
0.00776212
0.00623782
0.00640087
0.00780956
0.00290865
0.00457196
0.00200745
0.00256424
0.00575781
0.00085137
0.00199284
0.00362947
0.000565511
0.00176757
0.00292016
0.00409142
0.00441709
0.00544198
0.00793806
0.00180579
0.0087742
0.0049411
0.00703515
0.00701997
0.000416168
0.00365998
0.00119355
0.00917833
0.000105192
0.0043474
0.00197424
0.00362072
0.00924666
0.00300025
0.00183078
0.000251284
0.00847205
0.00505175
0.00551849
0.00718985
0.00576753
0.00661941
0.000196526
0.00537579
0.00409112
0.00212354
0.00283675
0.00231554
0.00202192
0.000601821
0.00336891
0.005101
0.00220586
0.000391474
0.00389096
0.00368091
0.00448421
0.0154642
0.00269817
0.00151842
0.00675336
0.000426104
0.00245181
0.00382334
0.00128809
0.00130994
0.000774759
0.00147804
0.000132992
0.0028859
0.00600738
7.87186e-05
0.00106094
0.00180115
0.0026798
0.00240066
0.00334074
0.00887122
0.00148752
0.00964097
0.00281435
0.00606467
0.00033179
0.000493039
0.00202306
4.7024e-05
0.00511136
0.00169071
0.00560412
0.0038339
0.000863554
0.00867223
0.0081374
0.00904423
0.00125799
0.00346704
0.00286062
0.00127764
0.00259166
0.000996174
0.000829363
0.00142104
0.000993838
0.00268751
0.00178415
0.00726228
0.00245671
0.00622842
0.0084621
0.00824302
0.00400487
0.000922672
0.00542018
0.00692268
0.00113764
0.0111059
0.0046163
0.00386326
0.00619595
0.000141942
0.00475224
0.00181693
0.00717785
0.00639516
0.00434052
0.00233719
0.00532281
0.00261288
0.0128754
0.00125823
0.00228393
0.000681002
0.00418477
9.93388e-05
0.00529385
0.00109677
0.0106434
0.000598755
0.000312046
0.00855662
0.000209112
0.0108512
6.78068e-05
0.00164784
0.000522308
0.00190086
0.000210048
0.0111797
0.0101687
0.00390664
0.00475454
0.00228957
0.0019469
0.00114909
0.00469644
0.00319635
0.00623296
0.00250321
0.00744592
0.00527624
0.00682607
0.00335788
0.00542744
0.0016305
0.000493717
0.00300156
0.00667967
0.00366953
0.00486588
0.00493104
0.00263342
0.00378802
0.00186394
0.00051842
0.00303595
0.00433337
0.00521479
0.00837979
0.00750804
0.00526193
0.00556633
0.00076565
0.00472152
0.00100348
0.00246328
0.000624599
0.000325221
0.00184927
0.0046893
5.19192e-05
0.00155655
0.000985448
0.000489004
0.00379969
0.00360516
0.000309292
0.000242373
0.00361043
0.00336011
0.00814189
0.00269997
0.00098771
0.00536391
0.00579143
0.00293525
0.00155501
0.00923609
0.00241096
0.00047805
0.0083345
7.48931e-05
0.00203323
0.000114334
0.000715806
0.00311175
0.00428886
0.00374464
0.0011634
0.0106531
0.00170851
0.00205101
0.00153184
0.00366862
0.00274212
0.00386123
0.00377094
0.00160977
0.00148924
0.007147
0.00319877
0.00358448
0.0021177
0.00547622
0.00399184
0.00565213
0.00460147
0.00493473
0.00364946
0.00278946
0.00214952
0.00586384
0.00449259
0.00317931
0.00765487
0.000583012
0.0025795
0.00118456
0.00648121
0.0016286
0.00172445
0.00195905
0.00227203
0.00140716
0.00267191
0.0042586
0.00364523
0.00385386
0.00651045
0.00305086
0.00282086
0.00799589
0.00651992
0.000779981
0.00237709
0.000241686
0.00247557
0.00140088
0.0018294
0.00287805
0.00843335
0.000258436
0.00869206
0.00185031
0.00131947
0.00346647
0.00280426
1.07595e-05
0.000253542
0.0051228
0.00400624
0.00950094
7.14988e-05
0.00425852
0.000669857
0.00410478
0.00133227
0.0056003
0.00508708
0.00818078
0.00182975
0.0123753
0.00376281
0.000501464
0.00219432
0.00707283
0.00164441
0.00401116
0.00765961
0.00584408
0.00482205
0.000816982
0.00334644
0.00470252
0.00266076
0.000642977
0.00382858
0.00643721
0.00110322
0.00114803
0.000142328
0.000299132
0.00708245
0.000943341
0.000747249
0.00482181
0.00488392
0.00876473
0.00239776
0.00241826
0.00489549
0.00383831
0.00681939
0.000381125
0.000938711
0.00261461
0.00231078
0.00566295
0.00426379
0.00237541
0.000979911
0.000126865
0.00226966
0.00379116
0.00178684
0.00292289
0.000998729
0.00196038
0.0025432
0.00160611
0.00924382
0.00236552
0.00194335
0.00420572
0.00753218
0.0049138
0.0022222
0.000215313
0.000643692
0.00351728
0.00429378
0.00448482
0.00177307
0.000935349
0.0026008
0.000201977
0.00138785
0.00229147
0.00718901
0.00685435
0.0066821
0.000543817
0.00136144
0.000125122
0.000436899
0.00114805
0.000264114
0.00872102
0.00323391
0.00457607
0.000571038
0.0009178
0.00361759
0.00067917
0.00272153
0.00259927
0.00135881
0.00220319
0.00614262
0.00383725
0.00215204
0.000671444
0.000529412
0.00054937
0.00414727
0.00156007
0.00583876
0.00430208
0.00635833
0.00629452
0.00299328
0.00222527
0.000680934
0.00250096
0.000970431
0.00230203
0.00410359
0.00464936
0.0065519
7.41124e-05
0.00485334
0.00145184
0.000431579
0.00160643
0.00328742
0.00368945
0.00148521
0.00332078
0.00125135
0.000221214
0.00571515
0.00271249
0.00193398
0.00277876
0.000555429
0.00370439
0.00118691
0.00931593
0.00305667
0.00585665
0.000480667
0.00252635
0.000888047
0.00110624
0.000336018
0.00353225
0.00412764
0.00388818
0.000125126
0.0109113
0.00448545
0.00317533
0.00610914
0.00351522
0.00447768
0.00544404
0.000739775
0.00119882
0.0127675
0.00116689
0.00355314
0.00179923
0.000967276
0.00578298
0.00328376
5.50543e-05
0.00171301
0.00123731
0.00955695
0.00604561
0.000405842
0.00201242
9.68315e-05
0.00471442
0.000771449
0.00186294
5.11407e-05
0.000140459
0.000470497
0.00119025
0.0017519
0.000311922
0.000489485
0.00116794
0.00492672
0.0008395
0.000573162
0.000418686
0.00457011
0.00504858
0.00505187
0.00616705
0.000352362
0.00133754
0.00378801
0.0015608
0.004438
0.0064644
0.00457883
0.000341442
0.000294764
0.00189076
0.00162342
1.16978e-06
0.0045587
0.00188602
0.00472635
0.00257558
0.00503154
0.00735076
0.00350444
0.00271482
0.00437285
0.000536213
0.00660989
0.000661025
0.0017499
0.00241397
0.00991597
0.00251974
0.00190336
0.00455132
0.000170475
0.00379864
0.00215057
0.00451195
0.0059047
0.00496399
0.000885508
0.00224514
0.00244101
0.00428455
0.00472432
0.00259644
0.000929471
0.000226101
0.000526817
0.00465134
0.00297879
0.00016296
6.11305e-05
0.000273755
0.00308368
0.00241793
0.00220687
0.00298321
0.00506045
0.00056365
0.00321843
0.00683514
0.00622718
0.00244707
0.00352336
0.000728367
0.000287532
0.00208569
0.00284016
0.00207632
0.00214525
0.000352979
0.00410425
0.00534741
0.000159253
0.0007301
0.00797812
0.00373528
0.00327231
0.00355969
0.0028966
0.00104578
0.00103064
0.00116206
0.00279616
0.003502
0.00430718
0.00385153
0.00021959
0.00446535
0.00172194
0.000777054
0.00117189
0.00134474
0.000644504
0.00507469
0.00674904
0.00107597
0.00369278
0.00453678
0.00363846
0.00699573
0.00570015
0.00191694
0.0100762
0.000101622
0.00649122
0.000270099
0.000979154
0.00175702
0.00154235
0.00302937
0.00179571
0.00290303
0.00226135
0.0109119
0.00068138
0.0031363
0.00186299
0.00200262
0.00225402
0.00107792
0.00371674
0.000254629
0.0041157
0.00377666
0.000319329
0.00107374
0.00345651
0.00287509
0.00544109
0.00627564
0.00313709
0.00276514
0.0030381
0.00136162
0.000189439
0.00605656
0.00268558
0.000672488
0.00459997
0.00164053
0.00550896
0.000974016
0.00373675
0.00172702
0.0013302
0.000492512
0.000184946
0.00879685
0.000758966
0.00327714
0.00375974
7.82483e-05
0.000648586
0.00247301
0.00303463
0.000796255
0.000549168
0.00323861
0.000137165
0.00239695
0.0038621
0.00665507
0.00319347
0.00327671
0.00514613
0.00149086
0.000240936
0.00225195
0.000748595
0.00696101
0.000289147
0.00473153
0.000119249
0.000666669
0.00348201
0.00134556
0.000204852
0.00440423
0.000104902
0.000260326
0.00104615
0.00328299
0.0022712
0.00447368
0.00906393
0.0066641
0.00564612
0.00344796
0.00040983
0.00337857
0.00028499
0.00339872
0.00230528
0.00295929
0.000657536
0.00199944
0.00461888
0.00307868
0.00905729
0.00346775
0.00485836
0.00341515
0.00533539
0.000277055
0.0029058
0.00441392
0.000714289
0.000842424
0.00748661
0.00172065
4.46962e-05
0.00214349
0.0017954
0.000302485
0.0035342
0.00658822
0.00188181
0.00178452
0.00234445
0.00478757
0.00154476
0.000773172
0.00312079
0.00160075
0.00172876
0.00143183
0.00895351
0.00184196
0.0106123
0.00824413
0.0025514
0.000351171
0.00587604
0.00208383
0.0052371
0.000369771
0.00379371
0.0012302
0.00698361
0.00371329
0.00125657
0.00316305
0.00288389
0.000687651
0.000930855
0.00173135
0.000976006
0.000664561
0.00127562
0.0076093
0.00369905
0.00024261
0.00373385
0.000738344
0.0036301
0.0010604
0.000442864
0.0029689
0.000232055
0.00259023
0.000340353
4.14292e-05
0.00461873
0.00499771
0.00491423
0.00152836
0.000480497
0.000358466
0.00232189
0.00462864
0.00393812
0.00453848
0.00192936
0.00683372
0.00108204
0.00561133
0.000683417
0.000608
0.00142217
0.0124547
0.00296464
0.00509288
0.00426776
0.00373947
0.00262934
0.00185937
0.00346628
0.00021086
0.00516778
0.00433103
0.00313667
0.00730758
0.00311846
0.000578106
0.00306313
0.00333053
0.00103961
0.000509633
0.00223346
0.0019227
8.89017e-06
0.00357791
0.000485027
0.00773685
0.00100203
0.00855989
2.95929e-05
2.59557e-05
0.000303827
0.000202971
0.0054196
0.000355718
0.00375506
0.000397557
0.00670985
0.000422935
0.000583061
0.000341616
0.000778469
0.00183342
0.00435759
0.00158193
0.00411069
0.00142113
0.00401827
0.00480806
0.00133718
0.000955885
0.00174993
0.00219543
0.00259646
0.00204908
0.00421739
0.000610012
0.00544734
0.000373143
0.00121816
0.00440463
0.0017242
0.00538633
0.00174901
0.0019573
0.00367532
0.000843341
0.00308277
0.000345545
0.00259763
0.00495043
0.00158995
0.000362489
0.00455229
0.00122484
0.00409
0.00403978