/*--------------------------------*- C++ -*----------------------------------*\
| =========                 |                                                 |
| \\      /  F ield         | OpenFOAM: The Open Source CFD Toolbox           |
|  \\    /   O peration     | Version:  2212                                  |
|   \\  /    A nd           | Website:  www.openfoam.com                      |
|    \\/     M anipulation  |                                                 |
\*---------------------------------------------------------------------------*/
FoamFile
{
    version     2.0;
    format      ascii;
    arch        "LSB;label=32;scalar=64";
    class       volScalarField;
    location    "0";
    object      stateMean;
}
// * * * * * * * * * * * * * * * * * * * * * * * * * * * * * * * * * * * * * //

dimensions      [0 0 0 1 0 0 0];

internalField   nonuniform List<scalar> 
3200
(
348.411
347.421
347.141
347.498
346.974
347.894
347.619
350.099
350.125
349.071
347.614
351.33
350.613
349.428
349.815
343.934
346.265
345.429
346.084
347.138
341.566
341.888
340.28
341.338
342.194
343.624
343.731
342.209
343.573
343.318
345.013
344.596
342.232
343.139
342.08
339.91
340.139
337.991
338.44
340.696
334.876
332.236
334.235
333.704
335.889
334.538
338.678
338.658
337.276
337.604
338.007
336.761
336.455
336.543
336.684
334.249
331.829
334.232
331.876
332.023
329.247
327.711
329.185
329.757
329.5
329.656
330.579
330.431
326.9
331.497
329.069
332.199
329.289
328.128
330.93
329.162
326.382
326.664
327.369
329.109
324.248
323.677
322.392
323.397
322.283
322.791
321.402
323.158
324.168
323.858
323.682
323.035
322.334
322.709
323.758
321.33
319.688
324.75
323.471
321.281
316.646
313.566
315.187
317.45
315.003
315.408
316.275
316.752
316.575
316.69
316.127
319.524
316.022
316.202
316.978
316.414
316.47
312.677
317.485
317.601
309.197
310.497
310.626
310.006
308.231
307.815
308.942
309.462
311.304
311.196
309.072
311.847
309.797
308.139
310.541
311.252
307.555
308.414
310.965
309.681
304.476
304.573
303.161
301.67
303.601
303.133
304.596
303.413
304.019
304.044
303.616
303.535
303.901
302.404
303.503
302.416
304.879
302.745
300.771
303.733
348.999
346.06
346.258
347.066
349.354
348.639
348.506
351.524
350.97
351.466
349.867
350.462
350.099
347.08
347.504
346.769
347.074
346.748
343.469
346.051
343.736
339.102
341.225
340.935
342.075
344.104
343.102
346.278
342.679
347.367
346.958
343.541
345.85
341.722
343.506
339.07
340.952
338.778
339.041
339.834
334.029
333.368
335.309
332.636
336.165
337.59
336.556
336.125
338.202
338.901
337.098
334.85
336.676
336.325
337.575
333.721
334.048
334.203
332.089
334.38
330.043
329.033
329.064
327.432
327.212
328.741
328.789
327.758
328.17
329.651
331.348
331.659
331.567
328.013
327.483
328.297
328.573
326.864
327.365
327.725
322.454
321.76
321.885
322.293
322.261
323.764
322.053
324.523
324.958
321.862
324.696
324.143
323.007
323.504
322.905
321.347
321.26
320.31
321.697
322.852
315.885
317.076
314.867
316.759
317.816
316.27
317.012
317.566
317.774
316.884
318.051
314.672
317.108
317.472
315.66
315.769
313.271
316.997
316.738
317.22
310.864
308.316
310.658
308.038
309.922
311.346
312.205
309.784
309.552
311.045
311.427
310.738
309.421
310.276
308.061
308.625
309.428
311.629
307.489
310.921
303.811
301.55
302.701
303.545
302.81
303.31
302.407
304.093
305.205
303.998
300.873
304.501
303.039
302.876
304.201
302.851
304.194
305.14
303.618
303.699
348.393
346.506
346.776
348.772
347.516
349.489
349.06
349.798
351.078
349.931
351.222
352.169
350.793
350.187
347.979
347.352
346.218
347.883
345.496
346.207
343.239
340.318
341.797
339.495
340.563
341.551
342.425
344.099
344.681
342.862
344.298
343.367
344.225
342.379
341.606
340.348
340.861
341.94
341.977
338.738
335.009
333.228
334.868
335.273
335.153
336.367
336.169
338.443
335.612
338.395
338.856
337.008
337.003
337.337
337.717
334.979
333.953
332.328
331.637
335.477
328.51
328.098
327.21
328.964
330.419
327.981
330.668
329.576
329.944
332.371
330.541
331.331
328.707
329.405
330.065
328.327
326.536
326.176
327.849
327.245
322.432
322.287
322.75
322.703
322.601
321.668
322.617
323.289
322.256
323.989
324.254
322.47
324.093
323.575
322.318
324.652
322.786
322.73
320.361
323.406
316.435
315.77
315.584
315.788
315.163
315.727
317.32
316.759
317.146
318.595
317.972
318.122
315.393
316.491
315.666
314.729
317.587
314.801
315.643
316.09
310.442
309.371
307.557
307.271
308.231
307.526
308.99
309.36
310.118
311.342
311.797
309.11
311.377
310.628
309.779
308.461
309.173
310.959
308.582
309.357
302.4
304.458
303.411
304.45
302.306
304.761
302.343
303.056
304.15
303.098
304.373
303.83
305.332
303.297
303.323
304.195
305.093
304.784
304.218
303.199
349.073
346.944
346.089
346.738
350.091
348.391
349.891
351.33
351.937
352.207
352.067
350.953
351.273
349.968
347.922
347.09
345.854
345.784
346.257
345.765
344.125
339.665
341.94
341.617
341.453
344.283
344.954
345.767
342.348
347.191
347.49
344.434
346.257
344.655
344.171
339.577
341.278
340.011
339.8
339.738
337.442
335.776
335.187
333.436
335.405
336.785
338.382
337.64
339.226
336.932
338.979
340.091
337.584
338.296
337.739
335.4
331.962
333.452
334.854
332.955
329.155
329.515
328.889
326.88
330.666
329.383
328.338
332.237
332.72
329.852
331.53
330.574
330.5
331.056
330.667
330.935
330.472
327.915
326.73
326.327
323.152
320.679
322.253
321.176
323.397
322.497
323.537
321.745
325.522
324.478
328.35
325.477
323.544
322.736
324.921
323.873
322.509
321.454
322.988
322.02
317.61
316.276
315.423
316.539
312.909
318.359
316.905
315.833
317.464
317.398
318.398
316.629
317.448
315.492
316.429
318.266
315.92
315.969
315.992
315.925
309.609
311.125
309.77
309.324
310.773
310.132
309.705
308.882
310.725
310.337
310.46
310.936
308.249
310.048
309.982
311.269
311.185
309.707
307.834
311.149
303.389
304.003
302.003
303.257
304.804
303.697
303.298
306.039
301.271
302.18
305.189
304.102
304.198
305.737
302.934
302.903
304.202
304.363
302.074
303.78
349.21
348.703
348.646
346.88
349.472
349.686
352.242
351.775
351.291
354.072
354.679
352.019
354.599
350.051
351.273
348.11
347.814
344.893
348.859
348.346
343.57
340.295
341.978
341.185
341.024
344.435
342.888
343.98
346.597
347.065
346.086
346.466
345.08
344.774
343.857
341.636
340.854
338.716
340.233
340.266
334.856
334.103
335.808
336.154
334.782
337.008
338.745
337.693
338.855
338.895
341.795
337.487
337.39
337.219
336.1
336.399
335.334
335.819
335.417
332.634
327.885
330.747
328.821
327.04
331.149
330.05
330.637
331.466
332.797
330.011
332.387
332.218
331.831
331.045
329.49
328.969
327.553
328.938
328.645
328.806
322.275
322.934
321.872
321.092
322.505
322.661
323.985
324.33
325.959
323.306
325.2
324.177
323.578
322.525
324.281
321.024
324.795
321.592
321.647
323.947
317.716
316.103
315.262
318.451
316.214
316.66
315.16
317.924
318.14
316.666
318.932
317.173
319.721
316.421
316.561
316.261
316.296
313.218
315.829
315.833
310.069
308.939
311.11
308.544
311.399
307.966
310.497
308.83
309.418
309.429
312.583
310.177
309.969
312.398
310.011
309.91
310.485
310.759
308.913
309.642
303.44
301.357
302.686
303.143
302.448
303.724
304.774
304.05
302.7
301.265
301.348
304.217
299.972
302.612
302.783
304.527
303.273
304.227
302.226
304.19
349.682
348.396
348.021
347.319
350.451
350.179
350.086
354.15
354.589
352.087
356.258
353.103
352.132
353.616
351.359
348.887
349.212
346.764
347.246
348.1
339.742
339.079
340.83
342.221
343.15
343.748
344.647
346.217
347.147
346.971
347.279
348.041
346.799
345.954
344.305
342.166
342.272
341.184
340.009
342.909
335.525
336.95
335.071
336.151
337.539
337.825
339.144
339.299
338.719
340.486
340.604
341.266
338.618
336.56
339.197
334.852
334.556
334.348
336.382
334.268
329.164
328.22
329.025
329.693
331.995
329.8
329.25
330.239
333.636
331.866
332.874
333.957
332.537
331.797
329.194
329.035
329.259
327.728
328.142
326.772
322.24
321.505
322.292
322.749
322.721
323.331
324.296
326.41
324.091
326.23
325.357
326.974
324.026
325.452
323.474
321.438
323.63
321.677
321.276
321.734
316.041
317.422
315.303
313.705
315.724
316.873
317.022
316.512
317.865
318.583
318.839
317.992
318.596
317.81
318.279
315.43
316.602
317.35
317.141
317.535
307.526
309.014
308.159
310.177
310.184
309.677
309.87
310.151
310.729
308.783
311.188
310.886
311.037
310.294
311.883
311.488
310.2
308.807
310.408
309.718
303.342
304.059
304.241
303.544
303.593
303.336
303.074
302.743
303.643
305.517
302.562
304.793
303.392
303.71
306.292
303.236
303.521
303.015
301.993
304.483
350.937
349.153
347.909
351.166
348.543
349.49
350.97
352.748
355.196
353.392
356.229
353.866
354.535
351.921
350.871
349.31
348.886
347.812
348.703
348.214
342.918
343.304
342.341
341.369
342.231
345.23
346.765
347.146
344.785
346.647
348.824
345.691
346.436
347.407
346.235
344.38
342.932
341.769
341.773
341.269
336.005
334.775
334.724
335.519
338.185
338.398
338.314
339.945
341.157
340.646
338.019
341.614
340.088
340.971
339.919
335.938
336.664
335.409
335.828
336.507
331.365
328.287
326.422
329.822
328.475
327.911
330.624
331.219
334.633
335.599
334.102
333.915
330.583
332.511
328.714
329.483
331.07
329.287
328.888
328.244
321.484
322.215
323.014
321.833
324.617
321.352
322.653
324.747
325.767
327.582
327.082
324.852
326.534
323.269
323.252
324.9
324.395
323.37
321.93
322.814
313.94
316.979
315.86
313.973
314.84
317.463
318.045
317.525
319.392
320.746
318.251
318.626
317.685
319.582
318.034
316.054
316.801
318.062
316.835
316.015
310.208
310.755
309.77
308.48
312.786
310.934
310.175
312.646
313.219
311.891
311.406
311.292
312.257
310.411
310.734
309.34
310.617
309.787
310.621
309.075
305.625
302.102
303.224
304.818
303.977
300.828
305.408
301.625
304.006
302.646
304.37
304.892
305.139
302.586
305.399
303.893
303.253
302.141
304.195
305.501
351.826
350.192
349.25
349.386
349.064
353.898
353.697
353.328
355.946
355.314
356.728
354.345
353.258
352.962
351.753
349.353
348.706
350.03
349.303
351.271
344.719
341.531
342.264
343.32
344.677
345.137
346.408
346.447
348.413
347.471
347.619
349.268
347.002
347.343
345.224
345.805
342.694
344.379
341.021
341.304
337.056
335.283
336.155
336.286
338.419
338.465
337.341
339.592
343.101
341.994
342.222
341.813
340.9
340.011
338.236
336.306
339.192
333.749
337.994
335.918
331.503
330.399
327.185
327.444
329.585
330.642
330.564
330.641
331.918
331.376
334.637
332.382
334.558
333.1
330.736
331.306
331.348
329.99
328.017
330.713
323.726
322.741
321.314
322.058
323.955
324.69
324.24
325.91
324.56
324.508
326.823
325.079
325.884
325.018
324.493
324.784
324.316
323.965
323.847
322.993
317.725
316.699
317.567
315.038
318.323
316.309
318.068
318.524
318.114
319.472
319.746
319.357
316.644
319.209
317.318
317.731
317.016
315.467
316.806
316.293
310.107
309.996
310.776
306.431
309.493
310.699
311.437
311.487
310.514
310.946
310.109
312.32
311.248
309.962
310.527
308.763
309.265
308.824
310.507
310.381
304.499
303.616
299.955
304.001
301.394
304.487
304.43
301.395
304.543
304.962
303.315
303.734
302.121
303.816
306.057
302.581
301.784
302.064
302.807
304.146
351.827
351.637
351.409
352.678
349.834
350.48
353.402
354.868
357.749
356.922
358.458
355.397
357.035
354.247
353.335
351.153
348.236
349.562
350.267
351.655
344.731
343.678
341.676
343.803
344.216
344.327
345.747
349.028
347.39
350.577
350.715
350.814
348.249
349.214
347.697
344.129
343.478
340.236
343.222
344.754
337.489
337.194
338.332
339.234
335.161
338.91
340.681
339.038
341.098
342.702
341.481
341.85
343.363
339.806
338.89
337.831
338.473
337.525
339.331
337.738
332.069
330.009
332.178
330.739
332.074
332.016
334.543
334.157
334.967
333.151
336.051
334.074
333.078
331.349
331.41
330.366
331.35
329.467
331.471
329.665
324.84
322.94
322.977
323.754
324.762
324.971
325.116
327.433
326.947
326.416
326.465
326.53
327.701
326.237
325.967
326.068
323.045
324.217
324.816
324.519
318.552
315.862
317.205
317.922
317.228
317.336
318.21
318.525
317.89
319.038
318.881
317.995
320.5
317.62
318.928
316.948
316.184
317.698
316.537
316.697
309.261
308.652
309.222
309.868
309.749
308.672
310.569
311.794
311.017
313.419
311.975
309.385
313.046
310.911
309.564
310.261
311.473
310.872
309.339
309.598
303.283
305.186
303.317
303.834
303.615
303.204
305.087
302.761
303.288
302.935
302.842
306.699
306.054
302.845
302.714
302.339
303.595
303.642
304.254
302.043
351.097
353.473
352.112
352.194
351.94
350.906
353.108
354.783
355.413
357.198
358.792
357.109
355.794
355.684
353.605
352.718
351.533
350.452
351.645
353.45
344.175
342.346
347.021
343.726
346.422
345.901
347.127
346.891
348.554
347.576
347.538
350.631
346.363
350.217
345.431
344.211
343.531
342.881
341.654
343.8
338.421
340.516
337.475
337.184
337.129
340.652
338.722
341.337
340.723
343.352
342.705
342.541
343.594
339.44
340.876
340.017
337.957
338.552
339.013
337.026
329.767
328.789
331.114
330.12
332.146
331.788
333.224
332.623
334.481
334.466
335.59
334.502
332.293
332.066
332.837
333.029
330.776
330.529
329.944
329.787
324.839
325.631
322.68
323.501
326.032
324.637
325.228
325.847
325.863
328.191
327.734
326.726
326.499
325.607
324.799
326.238
324.781
324.088
323.147
322.938
317.944
317.733
315.51
315.355
316.021
316.018
318.826
319.278
318.842
318.232
322.102
319.546
319.821
319.456
317.319
318.872
316.543
318.271
316.038
318.136
309.982
310.392
309.708
312.931
310.862
310.456
308.961
311.606
312.548
309.493
311.774
310.069
311.701
310.817
312.322
311.555
312.014
309.895
310.031
313.11
304.253
303.509
302.892
302.987
302.456
303.309
302.929
303.613
305.233
302.407
301.463
302.449
302.468
305.772
302.232
305.77
303.614
304.173
303.888
305.773
353.603
352.164
350.924
351.754
354.444
354.936
355.697
355.349
360.08
357.989
358.085
358.851
357.589
357.497
354.479
352.184
350.469
351.013
351.343
353.476
343.932
343.076
345.749
344.443
347.543
346.328
348.81
347.635
350.045
348.051
348.29
350.194
347.403
350.201
346.014
347.294
344.696
346.057
342.577
343.296
338.451
340.144
338.098
339.398
338.409
341.059
339.199
342.816
343.343
341.381
344.151
342.811
342.559
339.546
340.774
340
338.097
340.041
336.268
339.016
332.795
331.365
330.033
332.663
330.009
333.782
330.206
333.579
333.724
334.713
334.142
334.582
333.366
334.249
330.274
331.585
329.614
331.563
329.907
331.346
325.592
325.332
325.537
323.78
325.857
323.854
323.872
324.064
324.368
327.254
327.817
326.526
328.08
327.489
324.102
324.927
326.262
323.56
325.145
323.54
316.967
318.622
317.733
318.109
316.475
317.13
319.202
319.592
317.83
320.94
319.974
318.161
320.553
319.948
317.935
318.772
317.06
316.737
317.04
319.045
312.561
310.39
310.559
311.939
312.705
311.294
311.709
312.983
308.573
310.946
311.573
312.94
311.749
311.732
310.841
312.514
310.737
310.702
311.967
307.885
303.709
302.636
302.38
305.386
304.357
303.609
304.8
302.963
304.012
303.418
304.985
304.537
305.602
303.368
305.456
301.916
303.649
305.074
303.219
304.123
355.28
351.652
348.852
353.038
353.874
353.912
355.496
355.875
356.317
358.71
359.232
357.334
359.158
355.473
354.19
353.207
354.027
351.881
355.244
352.755
345.281
346.934
346.905
345.194
347.31
347.156
348.79
349.23
349.84
350.603
351.035
350.958
351.141
347.834
350.927
347.757
347.636
343.223
346.166
346.09
339.359
338.265
338.79
338.305
339.849
339.113
341.689
343.58
341.324
342.621
344.18
344.239
343.312
342.343
341.846
341.703
339.383
339.281
336.431
337.479
331.927
330.704
331.596
330.274
332.201
331.93
331.994
331.968
335.066
335.543
336.376
334.194
336.257
334.611
334.857
334.344
331.339
332.147
330.817
333.056
323.436
322.298
323.463
325.698
327.945
326.308
326.277
326.047
328.93
327.92
328.073
328.512
327.845
327.837
325.268
326.687
323.195
324.791
324.623
322.653
317.386
317.152
318.313
319.164
317.141
317.997
319.61
319.747
320.147
323.723
317.933
319.202
320.725
318.507
318.902
319.057
317.953
317.66
316.715
317.214
310.027
311.091
308.502
310.522
311.055
311.453
311.876
310.417
312.291
314.058
311.759
314.252
310.288
312.928
310.996
310.878
311.174
310.351
308.61
310.592
301.676
302.256
303.214
300.905
306.066
300.907
303.321
302.691
302.904
304.176
303.001
304.076
303.492
303.271
303.351
304.412
304.079
305.68
304.164
301.486
353.863
354.444
353.757
352.852
355.915
357.219
355.845
359.946
358.027
357.963
358.794
356.433
357.684
356.087
357.309
356.26
351.645
353.17
353.417
349.977
348.661
345.215
346.259
345.954
348.351
347.598
349.992
349.009
352.678
349.349
349.031
351.95
348.7
351.927
347.539
347.471
346.371
346.127
344.853
348.077
340.95
339.294
340.165
338.387
340.424
340.715
342.421
340.132
343.638
342.512
344.201
343.311
343.552
341.964
338.477
339.209
338.997
339.571
340.232
338.757
332.373
332.764
332.477
330.844
331.971
333.223
332.444
335.232
335.761
336.94
336.649
335.777
335.644
333.711
334.623
332.925
332.92
331.811
331.239
331.376
325.493
324.238
325.127
324.689
325.548
324.508
327.238
326.217
326.578
327.772
327.69
329.157
327.199
325.74
327.493
327.273
325.963
325.127
327.25
323.193
317.002
319.998
317.591
317.245
318.127
318.645
319.635
320.193
320.149
318.651
322.421
318.41
318.172
319.131
317.249
319.035
316.664
318.813
316.842
316.682
312.531
311.425
311.702
310.096
309.214
309.828
312.965
312.749
312.93
312.571
310.565
312.062
309.49
312.604
312.059
313.297
310.935
311.39
310.8
308.302
303.952
302.975
304.146
302.916
303.234
304.523
305.052
302.687
302.649
305.812
302.907
302.963
301.365
305.738
303.949
302.939
303.679
302.8
303.923
302.903
353.275
355.84
353.51
357.443
355.765
355.333
357.648
355.907
357.262
357.529
359.269
358.689
360.299
356.388
357.317
354.87
352.908
354.072
354.84
354.053
348.237
345.288
350.845
345.908
348.034
349.227
351.459
348.844
351.125
352.558
351.923
351.408
349.704
350.159
350.101
348.786
347.438
345.229
348.148
345.792
338.904
338.89
339.37
342.438
340.254
341.339
343.178
343.563
345.148
343.102
343.109
343.824
343.205
343.86
340.954
340.895
340.919
340.256
340.857
339.958
332.366
331.593
332.396
333.564
331.992
333.075
335.013
333.999
333.886
335.501
335.187
337.634
333.542
334.686
332.268
335.765
334.444
333.093
331.847
331.791
323.464
326.262
326.662
326.136
326.21
327.077
326.579
326.29
326.157
329.341
329.231
329.09
326.921
326.068
326.27
325.763
325.933
325.29
322.034
325.656
316.153
317.971
318.322
319.434
318.315
319.63
319.794
319.564
318.543
321.267
320.531
319.933
318.916
318.796
318.587
319.852
318.78
316.173
319.157
319.625
312.539
311.624
311.53
310.778
310.361
311.579
312.116
312.776
313.017
309.562
311.581
313.08
311.046
311.265
311.777
310.116
312.137
311.3
311.726
310.973
303.616
301.851
302.81
303.098
304.579
303.613
302.697
304.217
306.71
304.82
305.671
303.733
304.624
304.092
303.446
303.633
302.612
304.887
304.766
303.511
357.621
355.906
353.866
353.516
355.113
355.395
359.489
358.251
357.868
363.036
358.877
359.571
357.342
357.889
354.929
357.536
355.669
354.385
354.755
357.142
348.803
347.318
348.46
348.396
347.303
349.222
349.316
350.334
350.573
350.597
350.345
351.236
350.243
350.139
349.9
347.229
348.654
347.959
347.032
348.291
341.324
341.716
338.389
341.118
341.037
340.658
342.89
344.202
345.126
344.598
342.91
342.808
342.033
341.8
341.953
339.937
341.641
342.098
339.122
341.318
334.915
331.618
332.279
335.059
333.827
332.172
334.932
334.39
334.354
338.584
336.105
334.525
336.501
334.654
335.652
333.288
332.095
335.151
334.436
332.765
326.029
326.335
327.246
327.714
325.64
326.477
326.963
327.415
325.865
328.438
327.516
327.408
327.153
328.045
325.991
327.209
325.2
327.499
325.357
326.346
320.274
320.252
317.712
317.599
318.715
319.248
320.005
318.579
320.254
318.958
319.757
320.902
317.778
319.288
318.923
321.492
317.531
317.449
317.137
319.021
311.206
311.303
310.753
310.383
310.298
310.172
310.424
311.644
313.167
311.27
312.049
312.14
312.131
311.825
313.095
309.286
311.588
309.966
312.393
312.012
305.773
305.414
303.145
306.834
303.788
305.833
303.98
303.629
304.482
303.49
303.038
304.494
304.809
303.211
300.545
304.026
304.726
303.161
303.075
302.965
355.005
357.223
356.428
355.684
356.416
358.447
359.212
357.982
360.536
361.603
361.903
360.63
358.231
357.737
358.821
357.699
354.991
355.562
356.139
357.023
348.683
350.465
349.418
348.322
350.764
350.184
350.904
351.356
348.568
351.52
352.94
352.984
351.394
350.849
351.517
349.096
349.35
348.886
347.416
348.064
341.611
339.834
339.329
340.974
341.394
344.696
342.78
343.5
343.013
344.149
346.286
343.886
345.209
343.251
342.702
341.323
342.526
341.672
339.649
340.83
333.351
333.377
332.996
333.712
333.342
332.141
337.711
337.608
337.038
336.104
337.101
335.976
336.854
334.702
336.171
334.62
335.141
332.55
334.753
336.458
324.919
327.856
325.44
325.106
327.045
326.449
326.184
327.581
327.669
330.468
327.448
327.93
327.112
328.218
327.301
325.98
329.003
327.17
326.853
325.286
317.111
318.3
318.748
318.209
319.92
319.045
320.22
317.031
320.576
316.639
322.673
320.803
319.783
317.883
320.264
321.082
319.087
317.785
319.184
316.411
312.358
311.686
310.432
310.645
311.88
312.069
312.418
312.261
312.22
311.643
314.415
313.167
312.033
313.043
311.549
312.797
311.213
311.555
312.219
311.13
304.543
303.685
303.841
305.274
305.431
305.444
303.518
303.863
304.137
304.744
305.445
302.831
305.389
303.397
301.873
303.583
302.166
303.62
303.973
303.324
361.575
356.537
356.34
357.211
357.954
358.863
359.582
359.357
360.78
359.119
359.421
359.724
357.972
361.375
359.601
358.197
357.547
357.792
357.415
356.329
350.283
350.011
351.751
350.828
348.761
351.569
349.29
352.624
352.838
353.047
353.012
350.917
352.739
350.983
351.782
349.122
351.146
350.701
349.888
349.339
342.683
343.878
342.255
341.809
343.14
342.62
342.671
345.049
345.1
344.261
344.107
343.875
343.882
342.875
344.212
341.756
343.348
342.379
340.878
341.466
336.269
335.317
335.723
336.646
336.03
337.089
336.203
335.658
335.014
336.222
336.635
335.148
336.12
334.943
337.411
333.864
337.118
334.451
334.798
335.1
328.054
328.424
325.679
327.352
326.17
328.167
327.928
328.166
327.642
328.242
325.271
330.342
327.739
328.792
327.104
328.316
325.514
328.064
326.244
326.599
319.122
318.963
318.337
321.304
318.617
319.183
319.585
320.609
320.139
321.095
319.879
320.521
319.638
319.549
318.525
320.604
316.157
321.4
319.249
319.976
310.894
311.49
313.023
312.23
311.289
313.077
310.765
312.139
313.157
314.083
313.48
313.879
315.963
310.633
313.674
311.684
311.194
312.811
309.935
309.359
303.961
305.668
303.368
305.123
302.225
304.483
304.054
303.542
302.86
304.924
303.49
304.336
303.855
302.976
303.613
302.581
303.783
304.596
304.364
303.807
357.745
358.56
360.116
356.704
358.135
358.706
359.202
361.931
359.156
361.851
360.112
358.982
360.586
359.554
358.913
359.235
357.858
357.8
356.953
356.055
351.435
350.223
350.244
351.83
351.012
351.081
351.262
352.787
353.309
349.879
351.233
351.659
351.235
350.566
351.34
351.968
350.408
350.279
348.237
350.069
343.331
343.944
339.701
340.188
341.844
343.716
345.499
342.355
346.466
345.38
344.123
347.737
343.13
344.289
342.104
341.208
341.77
342.884
342.203
339.803
336.193
334.882
333.605
334.045
336.836
334.887
336.456
335.827
338.101
336.984
337.649
334.935
337.069
336.412
336.725
335.007
335.621
335.639
334.367
334.172
327.708
325.818
328.751
325.131
326.57
328.249
328.255
327.239
331.164
328.491
327.486
326.681
329.2
326.084
328.998
326.699
326.44
327.262
327.834
327.857
319.587
319.467
320.785
319.934
320.241
320.813
319.706
321.025
321.55
317.897
320.535
321.423
319.049
322.121
320.762
319.362
319.861
320.218
320.781
320.435
311.113
313.498
311.844
311.467
313.152
311.321
311.314
311.455
311.923
311.464
312.629
312.486
313.905
311.879
313.595
312.446
312.689
310.009
310.097
312.058
302.702
306.176
301.554
303.116
302.458
304.221
304.939
306.398
304.36
305.25
305.149
303.867
301.951
304.712
304.192
306.321
302.547
305.325
302.309
303.905
359.822
358.908
357.924
358.894
361.059
358.264
361.625
361.234
359.096
361.254
361.183
362.282
362.647
359.975
359.297
358.421
360.604
357.675
358.849
360.804
351.647
352.459
350.802
353.969
350.625
354.063
352.644
354.971
352.369
354.397
355.779
353.585
355.247
353.364
354.54
352.278
353.633
351.204
353.051
352.557
345.132
345.497
344.744
341.87
344.566
343.504
343.115
343.2
344.867
345.218
345.817
344.105
344.336
344.908
343.701
344.461
344.685
341.203
341.904
343.009
335.648
337.693
335.006
333.884
335.197
334.881
335.992
337.073
335.596
336.042
335.675
336.947
336.24
335.938
336.384
336.053
335.801
335.21
333.979
335.238
326.678
328.825
326.374
327.764
327.145
325.784
329.25
329.94
328.781
331.679
329.153
329.906
327.533
328.093
326.016
325.408
330.246
327.949
328.549
327.435
319.788
322.415
320.643
320.233
320.296
319.119
319.748
322.992
321.702
323.61
320.646
321.967
318.808
319.501
320.482
318.46
319.122
316.689
319.272
317.373
309.831
312.712
314.872
311.34
311.971
311.01
310.467
311.608
314.112
311.479
311.959
312.293
311.453
314.491
313.02
313.147
311.722
310.896
311.751
312.629
304.719
304.264
304.036
305.299
302.876
305.499
302.759
304.536
303.014
304.397
304.265
304.538
304.06
302.532
305.925
304.646
303.518
303.43
304.607
303.994
360.916
360.29
359.276
361.181
358.343
359.686
360.527
359.098
361.233
361.755
363.499
362.758
361.177
359.412
360.228
358.37
358.366
360.45
359.363
359.342
352.751
351.84
350.318
351.894
350.338
352.694
350.362
352.267
354.788
353.219
354.839
351.639
351.788
352.753
350.437
353.232
352.298
350.09
350.513
352.175
346.158
343.881
343.812
343.876
341.232
345.009
344.65
344.508
347.708
346.859
344.89
345.7
346.562
343.791
346.375
343.208
341.998
344.027
344.301
346.14
335.52
336.243
334.065
334.881
338.794
335.439
335.761
337.328
336.318
336.628
338.552
338.503
338.536
338.198
335.613
334.127
334.897
337.113
336.271
337.043
328.625
329.593
328.836
327.687
327.518
327.352
327.332
328.575
329.948
327.024
330.959
328.915
328.283
327.537
329
327.448
325.897
324.998
329.587
329.011
321.983
321.75
320.062
319.862
317.633
319.373
318.791
319.514
320.039
320.812
321.586
319.829
321.649
319.782
318.88
320.765
318.615
320.057
320.117
319.333
309.786
311.404
310.431
309.233
313.213
310.494
312.03
312.353
310.218
310.878
312.187
314.328
315.058
310.149
310.745
311.953
313.719
310.3
312.239
312.506
302.798
304.476
304.705
304.263
305.262
303.931
305.243
302.309
303.418
304.711
304.942
305.041
304.446
304.959
304.503
304.232
303.466
302.694
304.552
304.543
)
;

boundaryField
{
    hotSide
    {
        type            fixedGradient;
        gradient        nonuniform List<scalar> 
400
(
321.511
322.87
325.591
329.677
335.133
341.965
350.181
359.788
370.794
383.208
397.037
412.289
428.971
447.088
466.647
487.651
510.105
534.011
559.372
586.191
323.738
325.08
327.767
331.802
337.194
343.949
352.078
361.591
372.498
384.81
398.537
413.687
430.268
448.289
467.755
488.672
511.043
534.872
560.161
586.913
326.149
327.47
330.116
334.091
339.406
346.071
354.099
363.503
374.296
386.491
400.101
415.136
431.606
449.52
468.885
489.706
511.988
535.735
560.948
587.63
328.704
330
332.597
336.503
341.73
348.292
356.205
365.485
376.15
388.215
401.695
416.604
432.954
450.753
470.009
490.73
512.919
536.579
561.714
588.325
331.33
332.599
335.142
338.97
344.099
350.546
358.332
367.477
378.003
389.928
403.271
418.047
434.27
451.949
471.095
491.712
513.807
537.382
562.439
588.978
333.918
335.158
337.643
341.389
346.414
352.74
360.392
369.397
379.779
391.562
404.765
419.407
435.503
453.065
472.101
492.618
514.622
538.114
563.096
589.569
336.321
337.531
339.959
343.622
348.544
354.751
362.274
371.142
381.385
393.031
406.101
420.618
436.595
454.047
472.983
493.409
515.33
538.747
563.663
590.076
338.36
339.543
341.92
345.509
350.339
356.44
363.847
372.595
382.718
394.244
407.2
421.608
437.485
454.844
473.695
494.045
515.897
539.253
564.114
590.478
339.852
341.015
343.352
346.885
351.645
357.665
364.985
373.643
383.675
395.113
407.984
422.312
438.116
455.407
474.197
494.491
516.294
539.606
564.428
590.758
340.643
341.795
344.11
347.613
352.334
358.311
365.584
374.193
384.176
395.567
408.393
422.679
438.443
455.699
474.456
494.722
516.498
539.788
564.589
590.901
340.643
341.795
344.11
347.613
352.334
358.311
365.584
374.193
384.176
395.567
408.393
422.679
438.443
455.699
474.456
494.722
516.498
539.788
564.589
590.901
339.852
341.015
343.352
346.885
351.645
357.665
364.985
373.643
383.675
395.113
407.984
422.312
438.116
455.407
474.197
494.491
516.294
539.606
564.428
590.758
338.36
339.543
341.92
345.509
350.339
356.44
363.847
372.595
382.718
394.244
407.2
421.608
437.485
454.844
473.695
494.045
515.897
539.253
564.114
590.478
336.321
337.531
339.959
343.622
348.544
354.751
362.274
371.142
381.385
393.031
406.101
420.618
436.595
454.047
472.983
493.409
515.33
538.747
563.663
590.076
333.918
335.158
337.643
341.389
346.414
352.74
360.392
369.397
379.779
391.562
404.765
419.407
435.503
453.065
472.101
492.618
514.622
538.114
563.096
589.569
331.33
332.599
335.142
338.97
344.099
350.546
358.332
367.477
378.003
389.928
403.271
418.047
434.27
451.949
471.095
491.712
513.807
537.382
562.439
588.978
328.704
330
332.597
336.503
341.73
348.292
356.205
365.485
376.15
388.215
401.695
416.604
432.954
450.753
470.009
490.73
512.919
536.579
561.714
588.325
326.149
327.47
330.116
334.091
339.406
346.071
354.099
363.503
374.296
386.491
400.101
415.136
431.606
449.52
468.885
489.706
511.988
535.735
560.948
587.63
323.738
325.08
327.767
331.802
337.194
343.949
352.078
361.591
372.498
384.81
398.537
413.687
430.268
448.289
467.755
488.672
511.043
534.872
560.161
586.913
321.511
322.87
325.591
329.677
335.133
341.965
350.181
359.788
370.794
383.208
397.037
412.289
428.971
447.088
466.647
487.651
510.105
534.011
559.372
586.191
)
;
    }
    coldSide
    {
        type            mixed;
        refValue        uniform 300;
        refGradient     uniform 0;
        valueFraction   uniform 0.991591;
        source          uniform 0;
        value           nonuniform List<scalar> 
400
(
300.038
300.032
300.02
300.029
300.029
300.028
300.047
300.038
300.028
300.036
300.031
300.014
300.033
300.03
300.049
300.038
300.033
300.023
300.04
300.024
300.038
300.013
300.037
300.034
300.011
300.034
300.018
300.03
300.044
300.03
300.022
300.019
300.025
300.016
300.046
300.031
300.048
300.052
300.036
300.038