/*--------------------------------*- C++ -*----------------------------------*\
| =========                 |                                                 |
| \\      /  F ield         | OpenFOAM: The Open Source CFD Toolbox           |
|  \\    /   O peration     | Version:  2212                                  |
|   \\  /    A nd           | Website:  www.openfoam.com                      |
|    \\/     M anipulation  |                                                 |
\*---------------------------------------------------------------------------*/
FoamFile
{
    version     2.0;
    format      ascii;
    arch        "LSB;label=32;scalar=64";
    class       volScalarField;
    location    "0";
    object      stateMean;
}
// * * * * * * * * * * * * * * * * * * * * * * * * * * * * * * * * * * * * * //

dimensions      [0 0 0 1 0 0 0];

internalField   nonuniform List<scalar> 
3200
(
353.267
351.663
350.613
350.145
350.278
350.751
351.386
352.111
352.478
352.921
352.952
352.65
352.005
351.085
350.197
349.477
348.861
348.916
349.783
351.025
346.11
344.837
343.893
343.471
343.632
344.13
344.587
345.104
345.676
345.948
345.891
345.741
345.12
344.416
343.572
342.907
342.406
342.565
343.228
344.195
339.036
337.981
337.158
336.836
336.929
337.322
337.832
338.313
338.737
338.868
338.93
338.681
338.138
337.649
336.92
336.37
336.086
336.103
336.679
337.565
331.935
331.08
330.492
330.121
330.318
330.532
330.933
331.343
331.655
331.827
331.938
331.712
331.409
330.863
330.223
329.798
329.492
329.586
330.027
330.727
324.82
324.285
323.742
323.459
323.582
323.815
324.081
324.404
324.575
324.791
324.883
324.739
324.429
324.062
323.587
323.257
323.019
323.089
323.319
323.875
317.815
317.308
317.018
316.766
316.824
317.041
317.215
317.503
317.619
317.647
317.731
317.59
317.411
317.193
316.939
316.656
316.478
316.456
316.707
317.063
310.579
310.362
310.244
310.099
310.128
310.21
310.337
310.481
310.551
310.71
310.7
310.531
310.493
310.391
310.14
309.938
309.97
309.882
310.066
310.26
303.501
303.453
303.386
303.35
303.448
303.406
303.449
303.506
303.522
303.554
303.608
303.601
303.548
303.468
303.414
303.367
303.315
303.369
303.334
303.42
353.462
351.9
350.893
350.444
350.58
351.143
351.868
352.604
353.212
353.621
353.58
353.237
352.589
351.748
350.692
349.774
349.196
349.256
349.919
351.246
346.341
345.045
344.129
343.738
343.942
344.353
344.984
345.684
346.218
346.51
346.506
346.259
345.743
344.91
344.078
343.271
342.784
342.75
343.48
344.445
339.21
338.226
337.344
337.142
337.17
337.676
338.097
338.638
339.064
339.331
339.348
339.236
338.735
338.014
337.376
336.701
336.312
336.321
336.812
337.69
332.027
331.233
330.673
330.32
330.441
330.731
331.138
331.623
332.032
332.154
332.293
332.078
331.681
331.158
330.545
330.008
329.707
329.773
330.237
330.88
324.933
324.291
323.889
323.562
323.671
323.915
324.38
324.702
324.9
325.103
325.126
324.944
324.679
324.291
323.755
323.418
323.175
323.242
323.478
323.98
317.812
317.457
317.046
316.91
316.978
317.156
317.293
317.583
317.811
317.896
317.971
317.875
317.634
317.392
317.032
316.706
316.582
316.528
316.852
317.246
310.678
310.421
310.2
310.142
310.154
310.313
310.377
310.578
310.718
310.732
310.795
310.736
310.512
310.396
310.313
310.098
309.988
309.963
310.198
310.357
303.554
303.472
303.462
303.381
303.387
303.435
303.483
303.633
303.643
303.611
303.673
303.584
303.567
303.567
303.391
303.346
303.271
303.379
303.368
303.433
353.935
352.426
351.444
351.021
351.271
351.903
352.623
353.408
354.153
354.603
354.524
354.224
353.565
352.657
351.58
350.538
349.881
349.849
350.519
351.773
346.709
345.57
344.602
344.297
344.435
345.061
345.692
346.382
346.907
347.298
347.378
347.102
346.453
345.617
344.746
343.945
343.354
343.306
343.914
344.851
339.537
338.526
337.78
337.483
337.746
338.138
338.666
339.289
339.815
340.077
340.04
339.854
339.307
338.757
337.87
337.288
336.684
336.678
337.266
338.078
332.333
331.613
330.932
330.753
330.895
331.224
331.743
332.166
332.561
332.753
332.766
332.699
332.23
331.696
331.082
330.47
330.108
330.158
330.488
331.249
325.152
324.515
324.078
323.814
323.982
324.313
324.653
325.014
325.332
325.499
325.564
325.442
325.075
324.646
324.109
323.726
323.532
323.457
323.743
324.299
317.969
317.542
317.217
317.204
317.125
317.304
317.522
317.932
318.077
318.21
318.193
318.202
317.892
317.613
317.356
316.976
316.743
316.785
317.037
317.324
310.862
310.562
310.314
310.202
310.284
310.406
310.59
310.703
310.861
310.993
310.935
310.867
310.731
310.554
310.414
310.214
310.135
310.157
310.202
310.392
303.589
303.489
303.534
303.462
303.448
303.47
303.538
303.603
303.623
303.677
303.744
303.662
303.615
303.513
303.426
303.41
303.363
303.49
303.439
303.538
354.658
353.251
352.228
351.851
352.186
352.856
353.723
354.544
355.33
355.757
355.846
355.566
354.83
353.808
352.696
351.633
350.913
350.761
351.378
352.602
347.33
346.158
345.31
345.086
345.168
345.852
346.593
347.261
347.988
348.373
348.393
348.177
347.446
346.67
345.723
344.721
344.167
344.109
344.702
345.62
340.121
339.129
338.329
338.117
338.341
338.875
339.474
340.04
340.554
340.94
340.959
340.782
340.204
339.483
338.704
337.931
337.449
337.425
337.865
338.645
332.768
332.032
331.408
331.174
331.453
331.781
332.284
332.766
333.176
333.547
333.558
333.353
332.914
332.342
331.721
331.062
330.605
330.692
331.029
331.608
325.489
324.895
324.503
324.266
324.4
324.738
325.112
325.507
325.85
326.057
326.176
325.986
325.618
325.17
324.628
324.284
323.901
323.95
324.052
324.578
318.204
317.812
317.572
317.291
317.472
317.674
317.982
318.219
318.456
318.644
318.772
318.641
318.355
318.062
317.651
317.302
317.174
317.093
317.294
317.582
310.984
310.688
310.54
310.41
310.538
310.574
310.822
310.938
311.081
311.184
311.235
311.158
311.031
310.824
310.648
310.459
310.265
310.321
310.402
310.601
303.621
303.542
303.517
303.489
303.476
303.573
303.608
303.65
303.811
303.688
303.758
303.733
303.692
303.686
303.604
303.558
303.481
303.42
303.446
303.474
355.743
354.332
353.403
353.045
353.317
354.015
354.985
355.805
356.607
357.119
357.312
356.989
356.156
355.212
353.997
352.896
352.111
352.039
352.524
353.612
348.188
347.114
346.339
346.1
346.294
346.84
347.571
348.329
349.063
349.591
349.611
349.344
348.708
347.826
346.786
345.865
345.295
345.215
345.651
346.496
340.851
339.937
339.219
338.993
339.135
339.623
340.311
340.905
341.507
341.882
342.009
341.935
341.247
340.494
339.602
338.896
338.336
338.175
338.736
339.502
333.407
332.663
332.111
331.987
332.125
332.467
332.932
333.544
334.001
334.245
334.38
334.27
333.763
333.161
332.479
331.886
331.436
331.397
331.69
332.322
325.993
325.406
325.004
324.832
324.917
325.244
325.573
326.037
326.482
326.611
326.774
326.603
326.253
325.794
325.281
324.8
324.46
324.446
324.671
325.165
318.618
318.219
317.819
317.682
317.833
318.036
318.327
318.568
318.885
319.033
319.186
318.986
318.767
318.399
318.017
317.752
317.535
317.504
317.671
317.991
311.061
310.958
310.726
310.595
310.698
310.789
311.021
311.232
311.345
311.407
311.415
311.415
311.259
311.056
310.785
310.65
310.636
310.554
310.61
310.853
303.79
303.654
303.588
303.578
303.648
303.671
303.638
303.752
303.82
303.892
303.931
303.874
303.82
303.664
303.636
303.591
303.478
303.55
303.611
303.648
356.961
355.721
354.744
354.494
354.647
355.356
356.257
357.126
358.113
358.692
358.862
358.506
357.796
356.692
355.413
354.331
353.645
353.402
353.959
354.982
349.36
348.26
347.506
347.172
347.442
348.07
348.722
349.621
350.386
350.865
351.002
350.756
349.997
349.137
348.054
347.115
346.537
346.397
346.895
347.666
341.691
340.838
340.211
339.91
340.155
340.642
341.284
341.975
342.674
343.088
343.158
342.982
342.445
341.641
340.739
339.923
339.393
339.328
339.681
340.394
334.171
333.384
332.897
332.683
332.814
333.209
333.853
334.293
334.85
335.191
335.24
335.1
334.728
334.108
333.27
332.754
332.27
332.235
332.555
333.081
326.589
326.084
325.636
325.423
325.647
325.806
326.277
326.716
327.131
327.396
327.471
327.353
326.955
326.474
325.884
325.497
325.158
325.099
325.332
325.794
318.956
318.682
318.353
318.146
318.256
318.566
318.787
319.128
319.309
319.647
319.617
319.481
319.341
319.003
318.591
318.225
317.955
317.896
318.135
318.416
311.431
311.238
310.973
310.978
311.017
311.082
311.341
311.396
311.668
311.757
311.785
311.719
311.567
311.359
311.159
310.913
310.783
310.821
310.902
311.06
303.866
303.816
303.605
303.664
303.603
303.749
303.749
303.865
303.823
303.933
303.88
303.966
303.871
303.799
303.86
303.651
303.573
303.631
303.593
303.609
358.425
357.218
356.254
356
356.329
356.866
357.785
358.769
359.635
360.38
360.587
360.262
359.452
358.275
357.037
356.058
355.215
355.036
355.663
356.486
350.646
349.567
348.779
348.57
348.794
349.342
350.096
350.916
351.676
352.245
352.452
352.167
351.565
350.513
349.511
348.561
347.924
347.751
348.281
348.97
342.825
341.954
341.338
341.077
341.309
341.725
342.421
343.094
343.667
344.165
344.408
344.101
343.61
342.766
341.932
341.13
340.63
340.487
340.927
341.514
335.035
334.36
333.775
333.61
333.696
334.149
334.646
335.204
335.807
336.17
336.289
336.106
335.624
334.999
334.252
333.62
333.238
333.073
333.468
333.94
327.247
326.734
326.276
326.072
326.254
326.523
326.921
327.342
327.84
328.136
328.195
328.041
327.684
327.27
326.676
326.164
325.875
325.776
326.062
326.452
319.457
319.012
318.78
318.716
318.793
318.983
319.255
319.569
319.961
320.043
320.187
319.958
319.885
319.551
319
318.771
318.553
318.464
318.694
318.842
311.71
311.49
311.322
311.284
311.359
311.346
311.611
311.745
311.929
312.087
312.087
312.068
311.865
311.755
311.461
311.241
311.148
311.124
311.287
311.411
303.875
303.849
303.808
303.729
303.731
303.862
303.964
303.899
303.994
304.045
304.079
304.017
304.016
303.885
303.802
303.734
303.792
303.768
303.687
303.835
360.017
358.868
357.967
357.64
357.898
358.515
359.353
360.355
361.27
362.006
362.203
361.883
361.123
359.984
358.786
357.758
357.072
356.771
357.242
358.083
352.017
351.054
350.197
350.058
350.228
350.708
351.401
352.314
353.086
353.59
353.884
353.67
353.002
352.026
351.003
350.119
349.39
349.394
349.607
350.452
343.973
343.243
342.525
342.293
342.511
342.911
343.456
344.25
344.913
345.364
345.545
345.308
344.83
344
343.075
342.44
341.885
341.751
342.137
342.673
335.977
335.373
334.809
334.664
334.667
335.131
335.508
336.254
336.696
337.075
337.332
337.081
336.612
335.988
335.308
334.618
334.286
334.147
334.445
334.974
327.965
327.499
327.143
326.935
327.017
327.279
327.672
328.018
328.621
328.89
329.037
328.947
328.482
328.068
327.489
326.982
326.658
326.684
326.857
327.188
320.075
319.571
319.359
319.239
319.302
319.503
319.77
320.16
320.374
320.671
320.703
320.588
320.452
320.062
319.672
319.256
319.102
319.025
319.189
319.479
312.016
311.819
311.561
311.499
311.6
311.671
311.904
312.056
312.194
312.424
312.457
312.4
312.227
312.043
311.828
311.6
311.468
311.389
311.484
311.675
304.066
303.919
303.89
303.822
303.914
303.87
303.974
304.048
304.108
304.122
304.126
304.186
304.11
304.082
303.962
303.88
303.816
303.91
303.854
303.9
361.713
360.604
359.759
359.401
359.66
360.091
360.997
361.95
362.924
363.563
363.898
363.558
362.875
361.643
360.497
359.464
358.845
358.62
359.133
359.88
353.604
352.548
351.779
351.496
351.615
352.145
352.782
353.637
354.484
355.088
355.346
355.077
354.41
353.43
352.407
351.565
350.988
350.767
351.264
351.923
345.234
344.494
343.869
343.578
343.688
344.145
344.706
345.384
346.049
346.581
346.772
346.537
346.045
345.276
344.417
343.703
343.251
343.07
343.342
343.932
336.977
336.401
335.791
335.695
335.732
336.093
336.594
337.09
337.702
338.03
338.303
338.112
337.636
337.02
336.368
335.709
335.353
335.257
335.527
335.911
328.779
328.276
327.976
327.793
327.814
328.146
328.47
328.892
329.335
329.616
329.712
329.637
329.305
328.752
328.275
327.773
327.414
327.456
327.66
327.933
320.566
320.166
319.897
319.752
319.914
320.007
320.343
320.646
320.905
321.15
321.226
321.143
320.931
320.56
320.147
319.897
319.679
319.719
319.8
320.062
312.316
312.165
312.026
311.886
311.929
312.013
312.234
312.3
312.621
312.703
312.768
312.707
312.59
312.376
312.122
311.967
311.814
311.81
311.874
312.088
304.258
304.108
304.039
304.014
303.99
304.062
304.056
304.17
304.195
304.317
304.311
304.315
304.194
304.163
304.065
303.981
304.005
303.965
303.946
304.051
363.582
362.451
361.641
361.277
361.409
361.954
362.598
363.659
364.46
365.249
365.52
365.211
364.48
363.395
362.289
361.273
360.656
360.481
360.85
361.707
354.973
354.134
353.424
353.053
353.203
353.654
354.358
355.154
355.853
356.537
356.693
356.475
355.823
354.89
353.996
353.149
352.583
352.45
352.794
353.467
346.528
345.819
345.186
344.881
345.028
345.341
345.88
346.649
347.226
347.73
347.963
347.689
347.151
346.485
345.701
344.991
344.523
344.464
344.686
345.344
338.141
337.533
336.97
336.765
336.81
337.137
337.545
338.059
338.568
339.05
339.116
339.087
338.573
337.996
337.395
336.748
336.398
336.348
336.623
337.02
329.615
329.117
328.778
328.475
328.638
328.921
329.261
329.68
329.975
330.346
330.539
330.369
329.994
329.52
329.045
328.6
328.394
328.395
328.499
328.8
321.169
320.794
320.56
320.455
320.481
320.615
320.903
321.186
321.489
321.679
321.796
321.702
321.435
321.173
320.782
320.574
320.315
320.214
320.404
320.574
312.713
312.515
312.347
312.291
312.304
312.424
312.568
312.633
312.882
313.062
313.061
312.993
312.859
312.641
312.463
312.333
312.195
312.196
312.245
312.368
304.166
304.177
304.174
304.117
304.11
304.075
304.175
304.239
304.359
304.394
304.426
304.37
304.355
304.228
304.136
304.121
304.158
304.068
304.108
304.105
365.447
364.408
363.568
363.093
363.243
363.717
364.473
365.199
366.025
366.746
366.961
366.758
366.046
365.018
364.037
363.113
362.438
362.399
362.83
363.587
356.597
355.694
355.02
354.677
354.717
355.228
355.767
356.481
357.289
357.786
357.996
357.86
357.306
356.337
355.438
354.658
354.207
354.14
354.472
355.06
347.854
347.107
346.542
346.283
346.372
346.655
347.138
347.777
348.392
348.808
349.028
348.884
348.351
347.639
346.92
346.321
345.851
345.88
346.145
346.584
339.233
338.64
338.031
337.876
337.89
338.123
338.599
339.149
339.54
339.989
340.104
339.949
339.501
338.967
338.354
337.824
337.49
337.509
337.782
338.182
330.368
330.025
329.621
329.439
329.456
329.693
329.99
330.37
330.776
331.037
331.173
331.067
330.805
330.351
329.831
329.535
329.298
329.227
329.322
329.729
321.796
321.412
321.155
321.039
321.079
321.27
321.361
321.733
321.974
322.234
322.287
322.115
321.975
321.59
321.331
321.045
320.887
320.918
320.993
321.232
313.109
312.902
312.718
312.592
312.614
312.723
312.966
313.063
313.228
313.319
313.377
313.319
313.149
313.016
312.867
312.533
312.555
312.581
312.626
312.822
304.388
304.348
304.314
304.188
304.305
304.237
304.327
304.309
304.433
304.433
304.469
304.465
304.375
304.319
304.32
304.223
304.206
304.192
304.198
304.207
367.261
366.393
365.406
365.068
365.067
365.513
366.17
366.843
367.651
368.308
368.519
368.243
367.566
366.728
365.676
364.978
364.365
364.263
364.688
365.425
358.312
357.374
356.751
356.342
356.378
356.776
357.284
357.959
358.536
359.068
359.274
359.073
358.518
357.702
356.902
356.274
355.777
355.75
356.148
356.706
349.214
348.516
347.926
347.654
347.685
347.931
348.451
348.93
349.564
349.933
350.118
349.879
349.565
348.812
348.234
347.583
347.244
347.156
347.528
347.948
340.329
339.765
339.246
339.027
339.037
339.25
339.572
340.121
340.454
340.94
340.964
340.862
340.528
339.942
339.431
338.969
338.627
338.633
338.841
339.259
331.319
330.886
330.406
330.315
330.356
330.493
330.791
331.138
331.495
331.745
331.912
331.742
331.467
331.042
330.649
330.293
330.075
330.008
330.219
330.626
322.445
322.024
321.764
321.639
321.714
321.822
321.97
322.121
322.452
322.715
322.73
322.684
322.496
322.266
321.937
321.635
321.492
321.506
321.663
321.813
313.435
313.227
313.145
312.994
313.054
313.104
313.227
313.336
313.455
313.628
313.719
313.688
313.512
313.325
313.149
313.045
312.861
312.821
312.976
313.094
304.538
304.353
304.425
304.372
304.36
304.332
304.44
304.449
304.48
304.559
304.53
304.602
304.536
304.447
304.411
304.365
304.339
304.362
304.32
304.336
369.273
368.271
367.412
366.985
366.967
367.168
367.861
368.408
369.231
369.673
369.844
369.587
369.114
368.262
367.387
366.752
366.233
366.192
366.679
367.285
360.029
359.18
358.429
358.004
358.033
358.212
358.678
359.31
359.906
360.313
360.435
360.292
359.842
359.173
358.403
357.814
357.429
357.364
357.819
358.292
350.641
350.077
349.369
349.103
349.068
349.244
349.652
350.196
350.579
351.078
351.094
350.978
350.582
350.062
349.4
348.931
348.625
348.595
348.862
349.364
341.458
340.872
340.392
340.19
340.113
340.253
340.637
340.97
341.423
341.672
341.842
341.724
341.416
340.961
340.423
339.958
339.708
339.705
340.025
340.371
332.122
331.782
331.426
331.204
331.131
331.381
331.52
331.818
332.172
332.429
332.434
332.374
332.146
331.857
331.418
331.167
330.957
330.968
331.192
331.474
322.96
322.714
322.472
322.283
322.302
322.396
322.582
322.867
323.042
323.13
323.179
323.19
323.009
322.669
322.42
322.258
322.081
322.067
322.228
322.409
313.864
313.647
313.481
313.438
313.447
313.437
313.481
313.678
313.813
313.902
313.951
313.926
313.687
313.64
313.491
313.379
313.316
313.282
313.371
313.581
304.654
304.604
304.542
304.527
304.491
304.457
304.537
304.625
304.517
304.596
304.668
304.665
304.564
304.528
304.498
304.494
304.439
304.471
304.481
304.408
371.29
370.273
369.425
368.942
368.854
369.119
369.519
370.094
370.648
371.073
371.255
371.047
370.56
369.776
369.01
368.374
368.097
368.115
368.568
369.272
361.612
360.869
360.101
359.753
359.636
359.743
360.167
360.689
361.111
361.563
361.638
361.46
361.058
360.405
359.828
359.265
359.028
359.096
359.441
360.023
352.145
351.441
350.887
350.529
350.427
350.584
350.799
351.37
351.691
352.08
352.201
351.931
351.56
351.083
350.645
350.201
349.911
349.911
350.201
350.76
342.543
342.062
341.571
341.275
341.23
341.345
341.557
341.914
342.322
342.601
342.58
342.548
342.136
341.859
341.49
341
340.865
340.917
341.192
341.491
333.132
332.729
332.346
332.147
332.133
332.13
332.317
332.539
332.847
333.029
333.236
333.044
332.843
332.492
332.151
331.854
331.828
331.814
331.993
332.308
323.681
323.345
323.129
322.917
322.906
322.924
323.035
323.277
323.483
323.586
323.689
323.63
323.459
323.235
323.037
322.778
322.805
322.746
322.951
323.071
314.238
314.008
313.806
313.782
313.696
313.819
313.885
313.969
314.089
314.24
314.24
314.214
314.112
313.898
313.786
313.752
313.667
313.687
313.651
313.873
304.78
304.666
304.666
304.711
304.616
304.568
304.572
304.65
304.755
304.796
304.755
304.729
304.702
304.62
304.612
304.575
304.586
304.594
304.607
304.65
373.234
372.216
371.431
370.88
370.704
370.801
371.211
371.657
372.054
372.45
372.616
372.405
372.046
371.325
370.702
370.145
369.867
369.983
370.453
371.179
363.332
362.565
361.813
361.352
361.234
361.245
361.653
361.974
362.393
362.686
362.865
362.621
362.25
361.771
361.208
360.891
360.566
360.584
361.101
361.627
353.547
352.846
352.285
351.859
351.749
351.854
352.026
352.472
352.744
353.08
353.119
352.977
352.698
352.283
351.886
351.55
351.247
351.303
351.72
352.226
343.848
343.228
342.689
342.476
342.283
342.42
342.661
342.862
343.145
343.41
343.448
343.342
343.051
342.751
342.36
342.076
341.926
341.921
342.304
342.658
334.017
333.574
333.279
333.067
332.973
333.025
333.127
333.276
333.555
333.725
333.819
333.745
333.574
333.253
332.939
332.711
332.626
332.664
332.894
333.17
324.313
324.023
323.726
323.562
323.641
323.521
323.676
323.817
323.977
324.14
324.166
324.085
323.989
323.799
323.499
323.419
323.374
323.305
323.432
323.699
314.594
314.462
314.261
314.18
314.126
314.067
314.169
314.327
314.476
314.477
314.502
314.483
314.32
314.267
314.181
314.036
313.923
314.05
314.161
314.171
304.837
304.82
304.74
304.721
304.765
304.664
304.825
304.84
304.802
304.78
304.882
304.818
304.877
304.841
304.789
304.666
304.729
304.778
304.792
304.794
375.236
374.186
373.368
372.742
372.582
372.615
372.891
373.284
373.592
373.83
373.898
373.764
373.373
372.904
372.288
371.964
371.727
371.862
372.385
373.092
365.094
364.279
363.541
363.054
362.863
362.839
363.071
363.423
363.708
363.972
363.987
363.925
363.555
363.108
362.699
362.27
362.213
362.336
362.741
363.31
355.072
354.358
353.751
353.277
353.183
353.084
353.286
353.602
353.923
354.06
354.164
353.983
353.695
353.449
353.004
352.699
352.576
352.63
353.06
353.576
344.884
344.393
343.902
343.613
343.419
343.452
343.633
343.896
344.041
344.22
344.268
344.196
343.948
343.641
343.389
343.041
342.956
343.106
343.443
343.835
334.957
334.537
334.17
333.949
333.832
333.821
333.923
334.112
334.268
334.445
334.463
334.405
334.196
333.961
333.661
333.512
333.462
333.577
333.768
333.985
324.899
324.71
324.395
324.206
324.067
324.189
324.201
324.354
324.519
324.589
324.569
324.457
324.519
324.196
324.105
323.956
323.909
323.987
324.074
324.3
314.967
314.838
314.625
314.587
314.504
314.464
314.483
314.582
314.67
314.734
314.833
314.72
314.633
314.583
314.401
314.377
314.36
314.427
314.41
314.691
304.999
304.977
304.928
304.955
304.834
304.908
304.836
304.877
304.913
304.975
304.928
304.939
304.897
304.857
304.824
304.775
304.793
304.736
304.869
304.982
377.217
376.228
375.38
374.689
374.438
374.381
374.536
374.88
375.081
375.291
375.402
375.18
374.916
374.449
374.082
373.7
373.536
373.733
374.288
374.994
366.852
366.003
365.267
364.62
364.467
364.402
364.577
364.788
365.108
365.183
365.237
365.104
364.819
364.45
364.009
363.686
363.692
363.909
364.439
364.969
356.506
355.811
355.163
354.675
354.548
354.505
354.618
354.791
354.947
355.142
355.139
355.07
354.768
354.438
354.23
353.978
353.881
354.028
354.528
354.976
346.21
345.678
345.1
344.658
344.595
344.569
344.598
344.755
344.97
345.13
345.149
344.999
344.811
344.602
344.332
344.132
344.06
344.294
344.56
344.968
335.833
335.475
335.072
334.767
334.619
334.609
334.635
334.8
334.985
335.129
335.126
335.049
334.928
334.671
334.511
334.346
334.314
334.43
334.72
334.95
325.68
325.253
324.944
324.856
324.671
324.795
324.816
324.872
324.968
325.011
325.026
325.006
324.915
324.766
324.565
324.555
324.482
324.53
324.771
324.976
315.382
315.218
315.071
314.945
314.872
314.941
314.875
315.025
315.017
315.021
315.059
314.991
314.991
314.864
314.755
314.742
314.741
314.756
314.847
314.935
305.173
305.147
305.056
304.959
304.948
305.038
304.987
305.052
305.009
305.049
305.01
305.022
304.938
304.957
304.951
304.934
305.015
304.946
305.013
305.049
379.101
378.153
377.242
376.512
376.268
376.134
376.299
376.364
376.542
376.732
376.621
376.656
376.371
375.951
375.644
375.343
375.356
375.551
376.108
376.876
368.464
367.614
366.867
366.294
366.085
365.933
366.009
366.107
366.376
366.397
366.357
366.297
366.065
365.7
365.517
365.303
365.163
365.489
365.928
366.594
357.885
357.151
356.526
356.028
355.799
355.687
355.706
355.857
356.022
356.128
356.149
356.118
355.819
355.563
355.392
355.125
355.169
355.323
355.864
356.31
347.321
346.734
346.142
345.842
345.646
345.561
345.654
345.66
345.834
345.866
345.963
345.762
345.638
345.512
345.341
345.077
345.116
345.269
345.672
346.113
336.765
336.285
335.94
335.583
335.464
335.377
335.51
335.535
335.644
335.716
335.68
335.601
335.478
335.321
335.2
335.124
335.029
335.242
335.456
335.805
326.272
325.972
325.566
325.437
325.36
325.277
325.287
325.373
325.381
325.443
325.473
325.426
325.423
325.238
325.129
325.133
325.092
325.175
325.269
325.476
315.756
315.593
315.514
315.325
315.242
315.261
315.193
315.248
315.279
315.287
315.248
315.284
315.228
315.153
315.108
315.099
314.996
315.079
315.262
315.331
305.341
305.233
305.106
305.098
305.096
305.112
305.118
305.107
305.123
305.06
305.179
305.108
305.123
305.016
305.044
305.01
305.062
305.066
304.967
305.08
380.889
379.882
379.003
378.264
377.964
377.722
377.753
377.867
377.834
378.041
378.008
377.882
377.593
377.38
377.104
376.955
376.929
377.278
377.955
378.653
369.952
369.165
368.387
367.772
367.381
367.278
367.291
367.364
367.435
367.497
367.493
367.467
367.229
367.012
366.8
366.683
366.722
366.888
367.4
368.09
359.138
358.412
357.773
357.263
356.976
356.866
356.867
356.952
356.974
357.132
357.048
356.982
356.79
356.483
356.457
356.269
356.309
356.506
356.957
357.542
348.35
347.785
347.223
346.814
346.563
346.454
346.482
346.543
346.657
346.741
346.761
346.6
346.459
346.318
346.105
345.982
346.101
346.222
346.615
347.027
337.59
337.082
336.681
336.459
336.161
336.187
336.112
336.155
336.24
336.28
336.299
336.198
336.132
335.973
335.866
335.743
335.866
335.972
336.277
336.652
326.739
326.516
326.179
325.98
325.797
325.803
325.785
325.917
325.873
325.988
326.057
325.933
325.752
325.656
325.665
325.564
325.583
325.653
325.824
326.147
316.148
315.977
315.764
315.596
315.545
315.483
315.51
315.446
315.451
315.552
315.545
315.507
315.547
315.451
315.399
315.344
315.288
315.437
315.528
315.708
305.4
305.395
305.243
305.228
305.292
305.235
305.205
305.265
305.186
305.239
305.135
305.222
305.243
305.211
305.132
305.167
305.199
305.172
305.204
305.296
382.24
381.253
380.285
379.558
379.12
378.989
378.885
379.019
379.057
379.073
379.123
378.819
378.749
378.52
378.282
378.161
378.203
378.526
379.133
379.984
371.029
370.227
369.432
368.794
368.458
368.312
368.272
368.216
368.332
368.408
368.312
368.24
368.092
367.807
367.642
367.576
367.596
367.943
368.49
369.228
359.908
359.29
358.662
358.127
357.779
357.634
357.624
357.662
357.691
357.733
357.742
357.605
357.474
357.305
357.196
357.06
357.136
357.385
357.893
358.404
348.975
348.483
348.013
347.465
347.229
347.185
347.133
347.152
347.262
347.185
347.131
347.092
346.923
346.802
346.734
346.758
346.779
346.931
347.349
347.715
338.028
337.595
337.306
336.926
336.623
336.617
336.587
336.543
336.683
336.633
336.724
336.627
336.547
336.446
336.322
336.213
336.319
336.435
336.828
337.076
327.124
326.898
326.551
326.339
326.2
326.179
326.006
326.05
326.159
326.159
326.181
326.146
326.088
326.033
325.864
325.912
325.909
326.067
326.27
326.39
316.298
316.23
315.928
315.784
315.736
315.707
315.617
315.645
315.695
315.795
315.722
315.666
315.615
315.614
315.557
315.583
315.541
315.737
315.738
315.943
305.408
305.474
305.291
305.259
305.261
305.271
305.22
305.287
305.298
305.224
305.28
305.28
305.279
305.254
305.205
305.251
305.189
305.134
305.253
305.271
)
;

boundaryField
{
    hotSide
    {
        type            fixedGradient;
        gradient        nonuniform List<scalar> 
400
(
321.511
322.87
325.591
329.677
335.133
341.965
350.181
359.788
370.794
383.208
397.037
412.289
428.971
447.088
466.647
487.651
510.105
534.011
559.372
586.191
323.738
325.08
327.767
331.802
337.194
343.949
352.078
361.591
372.498
384.81
398.537
413.687
430.268
448.289
467.755
488.672
511.043
534.872
560.161
586.913
326.149
327.47
330.116
334.091
339.406
346.071
354.099
363.503
374.296
386.491
400.101
415.136
431.606
449.52
468.885
489.706
511.988
535.735
560.948
587.63
328.704
330
332.597
336.503
341.73
348.292
356.205
365.485
376.15
388.215
401.695
416.604
432.954
450.753
470.009
490.73
512.919
536.579
561.714
588.325
331.33
332.599
335.142
338.97
344.099
350.546
358.332
367.477
378.003
389.928
403.271
418.047
434.27
451.949
471.095
491.712
513.807
537.382
562.439
588.978
333.918
335.158
337.643
341.389
346.414
352.74
360.392
369.397
379.779
391.562
404.765
419.407
435.503
453.065
472.101
492.618
514.622
538.114
563.096
589.569
336.321
337.531
339.959
343.622
348.544
354.751
362.274
371.142
381.385
393.031
406.101
420.618
436.595
454.047
472.983
493.409
515.33
538.747
563.663
590.076
338.36
339.543
341.92
345.509
350.339
356.44
363.847
372.595
382.718
394.244
407.2
421.608
437.485
454.844
473.695
494.045
515.897
539.253
564.114
590.478
339.852
341.015
343.352
346.885
351.645
357.665
364.985
373.643
383.675
395.113
407.984
422.312
438.116
455.407
474.197
494.491
516.294
539.606
564.428
590.758
340.643
341.795
344.11
347.613
352.334
358.311
365.584
374.193
384.176
395.567
408.393
422.679
438.443
455.699
474.456
494.722
516.498
539.788
564.589
590.901
340.643
341.795
344.11
347.613
352.334
358.311
365.584
374.193
384.176
395.567
408.393
422.679
438.443
455.699
474.456
494.722
516.498
539.788
564.589
590.901
339.852
341.015
343.352
346.885
351.645
357.665
364.985
373.643
383.675
395.113
407.984
422.312
438.116
455.407
474.197
494.491
516.294
539.606
564.428
590.758
338.36
339.543
341.92
345.509
350.339
356.44
363.847
372.595
382.718
394.244
407.2
421.608
437.485
454.844
473.695
494.045
515.897
539.253
564.114
590.478
336.321
337.531
339.959
343.622
348.544
354.751
362.274
371.142
381.385
393.031
406.101
420.618
436.595
454.047
472.983
493.409
515.33
538.747
563.663
590.076
333.918
335.158
337.643
341.389
346.414
352.74
360.392
369.397
379.779
391.562
404.765
419.407
435.503
453.065
472.101
492.618
514.622
538.114
563.096
589.569
331.33
332.599
335.142
338.97
344.099
350.546
358.332
367.477
378.003
389.928
403.271
418.047
434.27
451.949
471.095
491.712
513.807
537.382
562.439
588.978
328.704
330
332.597
336.503
341.73
348.292
356.205
365.485
376.15
388.215
401.695
416.604
432.954
450.753
470.009
490.73
512.919
536.579
561.714
588.325
326.149
327.47
330.116
334.091
339.406
346.071
354.099
363.503
374.296
386.491
400.101
415.136
431.606
449.52
468.885
489.706
511.988
535.735
560.948
587.63
323.738
325.08
327.767
331.802
337.194
343.949
352.078
361.591
372.498
384.81
398.537
413.687
430.268
448.289
467.755
488.672
511.043
534.872
560.161
586.913
321.511
322.87
325.591
329.677
335.133
341.965
350.181
359.788
370.794
383.208
397.037
412.289
428.971
447.088
466.647
487.651
510.105
534.011
559.372
586.191
)
;
    }
    coldSide
    {
        type            mixed;
        refValue        uniform 300;
        refGradient     uniform 0;
        valueFraction   uniform 0.991591;
        source          uniform 0;
        value           nonuniform List<scalar> 
400
(
300.029
300.03
300.03
300.03
300.032
300.033
300.033
300.034
300.036
300.035
300.037
300.038
300.039
300.04
300.041
300.042
300.043
300.045
300.045
300.045
300.029
300.029
300.029
300.03
300.031
300.032
300.032
300.033
300.035
300.035
300.037
300.037
300.039
300.039
300.041
300.042
300.043
300.044