/*--------------------------------*- C++ -*----------------------------------*\
| =========                 |                                                 |
| \\      /  F ield         | OpenFOAM: The Open Source CFD Toolbox           |
|  \\    /   O peration     | Version:  2212                                  |
|   \\  /    A nd           | Website:  www.openfoam.com                      |
|    \\/     M anipulation  |                                                 |
\*---------------------------------------------------------------------------*/
FoamFile
{
    version     2.0;
    format      ascii;
    arch        "LSB;label=32;scalar=64";
    class       volScalarField;
    location    "./ITHACAoutput/true/5.6";
    object      error;
}
// * * * * * * * * * * * * * * * * * * * * * * * * * * * * * * * * * * * * * //

dimensions      [0 0 0 1 0 0 0];

internalField   nonuniform List<scalar> 
3200
(
-1.38171
0.629927
2.39854
3.5206
4.22776
4.37143
4.40546
4.2439
3.87607
3.63226
3.36701
2.92963
2.67721
2.47928
2.14419
1.65586
0.972848
-0.294054
-2.03743
-4.10353
-1.14226
0.640566
2.11847
3.13102
3.64552
3.7789
3.87811
3.66521
3.42187
3.17059
2.85765
2.5312
2.33473
2.07708
1.89998
1.52611
0.896475
-0.115787
-1.75403
-3.36326
-0.872019
0.557358
1.73548
2.58748
3.06967
3.23265
3.22743
3.11393
2.92185
2.62872
2.41441
2.22783
2.0617
1.8223
1.64563
1.31949
0.761929
-0.0777358
-1.40681
-2.70871
-0.617134
0.462433
1.45621
2.17849
2.5219
2.60793
2.56853
2.54405
2.4491
2.20821
1.97215
1.82167
1.68598
1.52538
1.40195
1.07064
0.628183
-0.0141317
-1.06168
-2.19307
-0.489237
0.296134
1.11368
1.58117
2.02063
2.12697
2.04326
2.01585
1.90215
1.71602
1.54312
1.46237
1.29838
1.17165
1.02275
0.893737
0.583336
0.0492324
-0.782421
-1.65039
-0.344304
0.217267
0.78181
1.1795
1.413
1.47306
1.4693
1.34092
1.34008
1.18598
1.1009
1.02227
0.893954
0.848487
0.70671
0.679849
0.346282
-0.0746818
-0.575947
-1.16686
-0.143477
0.118444
0.524958
0.71257
0.781562
0.928434
0.947075
0.826671
0.79317
0.753303
0.721434
0.648064
0.484389
0.496971
0.476051
0.352619
0.251607
-0.0232247
-0.345044
-0.635103
-0.0187765
0.0793941
0.0497577
0.257502
0.302867
0.340385
0.360621
0.286393
0.208125
0.207466
0.257333
0.180589
0.197976
0.162931
0.187795
0.113475
0.127387
-0.0837655
-0.149525
-0.264531
-1.24036
0.632987
2.40146
3.3845
4.05132
4.25643
4.10548
3.88994
3.50645
3.0859
2.78814
2.54282
2.22406
2.05361
1.84878
1.45273
0.871891
-0.344357
-2.07013
-4.07255
-1.08012
0.537736
2.08573
3.06969
3.48774
3.61968
3.61476
3.38017
3.03897
2.79101
2.466
2.20315
1.95718
1.84544
1.66324
1.33326
0.781478
-0.255393
-1.73097
-3.30434
-0.828855
0.49753
1.67289
2.52131
2.91787
3.10761
3.04103
2.80692
2.58965
2.36722
1.99811
1.9454
1.76986
1.58083
1.48879
1.1609
0.650023
-0.188726
-1.36438
-2.77645
-0.645351
0.403243
1.44473
2.01569
2.38924
2.50914
2.51898
2.32244
2.15712
1.93673
1.67776
1.55968
1.46552
1.38493
1.18445
1.00545
0.580066
-0.134835
-1.15619
-2.16697
-0.458445
0.309262
1.04644
1.70595
1.91122
1.99815
1.93941
1.76726
1.75024
1.54
1.35292
1.16803
1.15913
1.09089
0.997168
0.854197
0.448424
0.0270644
-0.868556
-1.70763
-0.362364
0.221114
0.798826
1.09697
1.36832
1.3865
1.33013
1.29758
1.23596
1.0935
1.03549
0.874488
0.788913
0.752102
0.679126
0.579529
0.273152
-0.0136762
-0.562033
-1.13965
-0.218722
0.0675386
0.450463
0.678918
0.824799
0.874337
0.823184
0.815138
0.795712
0.741655
0.585407
0.575843
0.487708
0.480694
0.443425
0.361189
0.164997
-0.0603516
-0.383803
-0.685455
-0.0393917
0.0617926
0.190531
0.186699
0.261768
0.254142
0.261575
0.294671
0.251463
0.270104
0.168701
0.182271
0.180953
0.15979
0.145287
0.113915
0.0486771
-0.0556873
-0.166754
-0.206232
-1.33948
0.622189
2.21753
3.28406
3.83127
3.86714
3.67515
3.25684
2.92274
2.40648
2.08605
1.73218
1.61727
1.50125
1.36289
1.0895
0.550963
-0.609863
-2.15814
-4.15494
-1.02877
0.534007
1.87153
2.87406
3.32108
3.37864
3.22868
2.83858
2.48243
2.20461
1.83345
1.62548
1.50138
1.38435
1.28373
0.960245
0.522543
-0.376341
-1.85497
-3.42521
-0.927496
0.403483
1.65356
2.45095
2.77605
2.87322
2.67261
2.46657
2.19527
1.87216
1.66198
1.42982
1.28153
1.22479
1.13256
0.922686
0.47396
-0.305563
-1.61715
-2.77528
-0.682634
0.379352
1.35418
1.97716
2.262
2.36763
2.15053
2.11412
1.83701
1.51696
1.26892
1.16302
1.12289
0.994045
0.8949
0.817726
0.45078
-0.20535
-1.2031
-2.24053
-0.561851
0.307167
1.02268
1.52967
1.76823
1.78189
1.74342
1.62847
1.39981
1.27591
1.0393
0.84775
0.840755
0.816597
0.729961
0.632263
0.306179
-0.109613
-0.869655
-1.72949
-0.361565
0.232075
0.740213
1.03088
1.2761
1.27881
1.26126
1.15313
1.0161
0.884723
0.729962
0.662931
0.619878
0.628076
0.453916
0.470191
0.367939
-0.148004
-0.652031
-1.21613
-0.160144
0.0904287
0.431764
0.60141
0.683959
0.757699
0.74556
0.742277
0.568238
0.527804
0.450442
0.388113
0.311703
0.322019
0.303468
0.291493
0.130153
6.55351e-05
-0.33632
-0.710367
-0.0548835
0.0107316
0.119276
0.262348
0.197209
0.26438
0.33097
0.193116
0.166919
0.170399
0.186455
0.0880059
0.0625125
0.124213
0.173858
0.117534
0.0684535
-0.0138883
-0.178136
-0.222525
-1.37265
0.434493
1.93234
2.95865
3.33937
3.3878
3.08343
2.69997
2.21601
1.6888
1.20995
1.00269
0.84351
0.846432
0.750003
0.562205
0.0934908
-0.803014
-2.44323
-4.34338
-1.24648
0.283984
1.77934
2.59112
2.88346
2.9813
2.72707
2.34783
1.96744
1.51982
1.07474
0.923337
0.797
0.725223
0.767475
0.577271
0.213815
-0.714322
-2.08797
-3.63723
-1.04018
0.257732
1.42129
2.18635
2.39355
2.51317
2.36491
2.03032
1.68614
1.27683
1.03684
0.781894
0.689596
0.682987
0.636081
0.530459
0.139054
-0.526079
-1.60822
-2.89196
-0.746779
0.309042
1.16959
1.83301
2.1234
2.03924
1.88963
1.55991
1.39273
1.01168
0.824052
0.66788
0.607717
0.607753
0.540264
0.470371
0.143241
-0.418735
-1.31206
-2.30353
-0.57561
0.20247
0.900857
1.35129
1.53716
1.62737
1.53241
1.31475
1.10607
0.860289
0.601081
0.527263
0.500092
0.472586
0.501431
0.378658
0.114995
-0.333637
-1.03001
-1.71833
-0.400374
0.11685
0.67088
0.986631
1.17195
1.10148
1.011
0.90839
0.773333
0.571031
0.513269
0.385849
0.400579
0.360753
0.288565
0.290176
0.122626
-0.29437
-0.715763
-1.2702
-0.241282
0.125904
0.330056
0.524746
0.642365
0.727427
0.690293
0.583376
0.497966
0.32676
0.36107
0.172983
0.286495
0.171356
0.141827
0.201798
0.0316709
-0.197345
-0.438611
-0.744268
-0.0826224
0.124604
0.145423
0.200051
0.190272
0.210246
0.225632
0.27195
0.207399
0.11808
0.0780627
0.0128355
0.0706963
0.0587975
0.0807143
0.136662
0.0735229
-0.0617275
-0.166039
-0.2857
-1.70645
0.127051
1.66088
2.54351
2.95884
2.78021
2.52777
1.97685
1.24858
0.800039
0.275901
0.0725878
-0.0194066
-0.0114461
0.10849
-0.0723474
-0.452493
-1.34316
-2.82243
-4.55813
-1.43137
0.0109698
1.40629
2.14607
2.48557
2.48938
2.18584
1.72534
1.20788
0.71927
0.248932
0.182974
0.0578303
0.140417
0.185345
0.129837
-0.292532
-1.08477
-2.39579
-3.85206
-1.16301
0.0826628
1.17352
1.8553
2.10828
2.17589
1.86521
1.52039
1.00003
0.633502
0.307898
0.133986
0.117499
0.160365
0.171212
0.111616
-0.25145
-0.944656
-1.89914
-3.06569
-0.92622
0.0177367
0.94618
1.51346
1.76578
1.75822
1.55412
1.20897
0.898934
0.477866
0.266276
0.0960856
0.231583
0.0727772
0.182633
0.121038
-0.115582
-0.680229
-1.5916
-2.4942
-0.697828
0.129446
0.684268
1.17949
1.28
1.3273
1.19475
1.03336
0.680529
0.418682
0.260873
0.164951
0.0289195
0.136947
0.165961
0.072539
-0.0908991
-0.559261
-1.12023
-1.91935
-0.558528
0.00243531
0.531358
0.849096
1.01267
1.00275
0.91922
0.680735
0.560446
0.274211
0.228543
0.115065
0.0743891
0.0924575
0.0903208
0.100999
-0.0803026
-0.376034
-0.847606
-1.3451
-0.335612
0.0185451
0.331003
0.440658
0.598789
0.578723
0.529894
0.391442
0.318315
0.241431
0.091546
0.0928619
0.116015
0.0901267
0.120624
0.0584827
-0.0529954
-0.180737
-0.55575
-0.708357
-0.128417
-0.0776413
0.0750708
0.150453
0.192473
0.19259
0.144514
0.107569
0.0887543
0.0831756
-0.0627162
-0.0132749
0.0109549
0.0205519
-0.00315058
-0.0060913
-0.00345862
0.00687
-0.168272
-0.168459
-1.96804
-0.268409
1.1879
2.09374
2.36743
2.29313
1.88177
1.27001
0.56922
-0.131394
-0.655848
-0.894943
-0.807454
-0.668633
-0.697888
-0.592718
-0.975087
-1.80179
-3.26943
-4.91311
-1.69086
-0.242561
1.05931
1.74297
2.05538
1.99125
1.58798
1.09026
0.535365
-0.0590866
-0.462194
-0.67411
-0.748397
-0.601553
-0.360061
-0.497591
-0.772037
-1.46275
-2.66058
-4.12221
-1.45439
-0.258542
0.852102
1.46676
1.71517
1.679
1.46741
0.941777
0.472005
0.00050956
-0.342644
-0.522408
-0.532873
-0.426295
-0.352128
-0.336925
-0.617567
-1.19213
-2.19262
-3.3767
-1.10058
-0.124593
0.758923
1.17007
1.4235
1.35484
1.10277
0.834953
0.367526
0.0757545
-0.164628
-0.408732
-0.429292
-0.313762
-0.23477
-0.243872
-0.450699
-0.960546
-1.8084
-2.72758
-0.847864
-0.183641
0.493117
0.988217
1.10038
1.09673
0.921758
0.67029
0.334394
0.0336741
-0.18357
-0.254374
-0.229958
-0.197954
-0.172464
-0.192834
-0.319415
-0.721369
-1.39135
-2.01297
-0.605406
-0.0489961
0.378011
0.605021
0.812471
0.786017
0.526298
0.472949
0.287573
0.0928584
-0.0911349
-0.28114
-0.16701
-0.104965
-0.160123
-0.0947971
-0.295858
-0.527841
-0.884551
-1.40642
-0.300838
-0.0738091
0.227646
0.342443
0.534569
0.48481
0.434154
0.287605
0.199349
0.0625825
-0.105095
-0.12818
-0.140383
-0.10325
-0.0635401
-0.0280538
-0.130636
-0.270125
-0.635849
-0.83757
-0.115925
-0.034811
0.0569507
0.119769
0.134506
0.169704
0.13077
0.0118743
0.111741
-0.00334524
0.0418604
-0.0267049
-0.0357357
-0.0174646
0.0380883
-0.0185519
-0.0156826
-0.0893071
-0.221324
-0.308638
-2.32771
-0.653923
0.714867
1.6272
1.8755
1.73325
1.24866
0.598996
-0.1774
-0.881882
-1.47093
-1.68395
-1.67843
-1.41618
-1.26105
-1.2227
-1.55945
-2.31149
-3.6822
-5.20687
-1.94004
-0.601818
0.613949
1.3073
1.69159
1.55226
1.09652
0.579138
-0.104128
-0.784597
-1.18639
-1.40467
-1.33061
-1.09569
-1.0239
-1.00693
-1.20337
-1.95155
-3.09179
-4.3836
-1.57676
-0.506452
0.520552
1.0785
1.38643
1.23362
0.948632
0.509109
-0.0438544
-0.592162
-0.967444
-1.11972
-1.03599
-0.843912
-0.785769
-0.875028
-1.00628
-1.62762
-2.50607
-3.63041
-1.27785
-0.395462
0.425288
0.98179
1.12545
1.06261
0.795011
0.451537
-0.0377651
-0.385408
-0.746736
-0.891456
-0.88956
-0.794798
-0.522205
-0.579088
-0.758099
-1.26312
-2.04409
-2.90832
-0.987492
-0.296275
0.310116
0.721423
0.845131
0.821169
0.56221
0.34851
-0.00555527
-0.294608
-0.528357
-0.60984
-0.601475
-0.43649
-0.501163
-0.451272
-0.500178
-0.921504
-1.52386
-2.17267
-0.604466
-0.276455
0.172293
0.556644
0.576069
0.679797
0.447124
0.248765
-0.0203598
-0.237779
-0.464496
-0.502548
-0.520624
-0.387034
-0.287526
-0.337364
-0.380614
-0.685948
-1.08572
-1.57771
-0.436021
-0.15312
0.206909
0.340653
0.412104
0.339195
0.287448
0.126014
0.0194434
-0.175062
-0.26533
-0.217574
-0.269836
-0.226059
-0.16358
-0.130298
-0.256605
-0.400631
-0.740382
-0.947527
-0.132131
-0.056551
-0.080046
0.149307
0.108428
0.152303
0.0431827
0.0484033
-0.0327202
-0.0890832
-0.101796
0.00741685
-0.143268
-0.0415555
-0.0610965
-0.0432385
-0.0852389
-0.0752659
-0.271377
-0.264867
-2.50976
-1.05634
0.296988
1.1398
1.3558
1.11715
0.68519
0.0303587
-0.825113
-1.65676
-2.19995
-2.43226
-2.33186
-2.04547
-1.73677
-1.68025
-2.00047
-2.67549
-3.98238
-5.57931
-2.13969
-0.910089
0.25907
0.975158
1.21201
1.13179
0.601417
-0.00930441
-0.586372
-1.33483
-1.79778
-1.9736
-1.97968
-1.66676
-1.47217
-1.42505
-1.64708
-2.36312
-3.30476
-4.52566
-1.75244
-0.721366
0.171878
0.805092
1.04854
0.891724
0.564977
0.0340643
-0.517597
-1.09023
-1.55398
-1.70356
-1.52985
-1.31235
-1.14111
-1.09946
-1.37484
-1.8638
-2.83435
-3.69949
-1.50804
-0.586523
0.231737
0.628219
0.877281
0.721055
0.44194
0.0364269
-0.405196
-0.86811
-1.15102
-1.32562
-1.14767
-1.12803
-0.911813
-0.8657
-1.0877
-1.47837
-2.35405
-3.01114
-1.1724
-0.572477
0.171562
0.519282
0.712708
0.638785
0.419661
0.0736279
-0.304701
-0.621933
-0.959781
-0.987134
-0.953571
-0.846488
-0.670453
-0.621559
-0.804468
-1.20612
-1.7459
-2.35979
-0.789633
-0.349436
0.095774
0.426057
0.481756
0.402404
0.290026
-0.0265033
-0.248415
-0.434692
-0.528528
-0.682397
-0.66507
-0.578145
-0.47297
-0.458638
-0.566418
-0.857669
-1.22664
-1.59346
-0.567949
-0.136776
0.111105
0.254693
0.297518
0.20006
0.186477
0.0547758
-0.141863
-0.254606
-0.330012
-0.493726
-0.427799
-0.363152
-0.239354
-0.337746
-0.303276
-0.514933
-0.680279
-0.962629
-0.199658
-0.0689376
0.0232112
-0.020055
0.0764091
0.0947279
0.0202242
0.0149447
-0.0660186
-0.11976
-0.127326
-0.193918
-0.200739
-0.0768999
-0.096589
-0.0830626
-0.131035
-0.0742455
-0.219221
-0.333318
-2.84836
-1.32962
-0.137304
0.748217
1.02548
0.77488
0.281357
-0.469337
-1.20836
-2.17572
-2.64999
-2.93912
-2.77671
-2.47381
-2.2786
-2.09693
-2.42951
-3.08643
-4.2794
-5.68637
-2.40562
-1.12801
-0.0740715
0.566076
0.936554
0.65683
0.271261
-0.329095
-1.04897
-1.80504
-2.19609
-2.44568
-2.34479
-2.02387
-1.86889
-1.69923
-1.94022
-2.5752
-3.58691
-4.74421
-1.90867
-0.878945
-0.0718355
0.516632
0.766743
0.6114
0.240836
-0.213028
-0.93278
-1.46685
-1.82892
-1.99392
-1.89268
-1.72646
-1.49035
-1.46944
-1.52714
-2.1205
-2.9914
-3.92999
-1.59816
-0.803019
-0.058882
0.426976
0.625853
0.530888
0.203359
-0.14274
-0.725637
-1.08139
-1.48036
-1.61333
-1.5133
-1.2638
-1.13663
-1.01345
-1.259
-1.64649
-2.39046
-3.08457
-1.15015
-0.607451
-0.0392283
0.340082
0.509939
0.473054
0.148338
-0.180831
-0.496157
-0.8803
-1.11381
-1.12651
-1.22262
-1.05871
-0.81285
-0.811951
-0.979698
-1.24772
-1.83937
-2.37732
-0.899277
-0.44734
-0.0577956
0.253204
0.357872
0.289098
0.151279
-0.076981
-0.359897
-0.591417
-0.817208
-0.858854
-0.873875
-0.690814
-0.667344
-0.62871
-0.751887
-0.884748
-1.31894
-1.72941
-0.478963
-0.209854
0.0344002
0.100392
0.226226
0.271175
0.0949524
-0.0949124
-0.173194
-0.341925
-0.489675
-0.48287
-0.53457
-0.401697
-0.345218
-0.324144
-0.398541
-0.594819
-0.811514
-1.04139
-0.229553
-0.107548
-0.00215463
0.0282444
0.0221297
0.0768144
0.0228817
-0.0117762
-0.121712
-0.123281
-0.115941
-0.135479
-0.195337
-0.118442
-0.104642
-0.127699
-0.140352
-0.167238
-0.219589
-0.29831
-2.8738
-1.51402
-0.242637
0.444389
0.71519
0.525184
0.00672461
-0.651897
-1.55324
-2.41871
-3.00827
-3.15655
-3.07167
-2.72887
-2.44953
-2.28925
-2.51604
-3.14355
-4.35233
-5.68984
-2.47429
-1.30764
-0.186751
0.416245
0.677347
0.60675
0.00820875
-0.567875
-1.3185
-2.00721
-2.50874
-2.7249
-2.56691
-2.29318
-2.06682
-1.9484
-2.14772
-2.71114
-3.67683
-4.81161
-1.98204
-1.1106
-0.214805
0.383994
0.534424
0.427094
0.100689
-0.383563
-1.1023
-1.6895
-2.14433
-2.15066
-2.05661
-1.88069
-1.59008
-1.51953
-1.78075
-2.27455
-2.99036
-3.9563
-1.60381
-0.900073
-0.0926554
0.310925
0.445242
0.403469
0.0562885
-0.383913
-0.875168
-1.27897
-1.59524
-1.73807
-1.65582
-1.60537
-1.42861
-1.24607
-1.31127
-1.81608
-2.39008
-3.13081
-1.24294
-0.689173
-0.09437
0.298039
0.394999
0.360981
0.0759652
-0.3177
-0.669929
-1.02684
-1.27304
-1.32583
-1.3188
-1.13229
-1.01378
-1.00021
-0.998358
-1.33847
-1.88826
-2.30191
-0.886392
-0.494714
-0.129911
0.177625
0.339636
0.236076
0.0692218
-0.130066
-0.440853
-0.763841
-0.885015
-0.909971
-0.85143
-0.802534
-0.732788
-0.677014
-0.823486
-0.903102
-1.31589
-1.67029
-0.449948
-0.323056
-0.0558444
0.167043
0.211445
0.106654
0.0265506
-0.104269
-0.300896
-0.424517
-0.563973
-0.570842
-0.549022
-0.50283
-0.364152
-0.429146
-0.501014
-0.559618
-0.797498
-0.949391
-0.126968
-0.121487
-0.0310731
-0.00234067
0.089092
0.085766
0.0417358
-0.00274152
-0.134323
-0.0634885
-0.103483
-0.129573
-0.168967
-0.186966
-0.158469
-0.112942
-0.173264
-0.3095
-0.199959
-0.332766
-2.9248
-1.56282
-0.367225
0.337298
0.593675
0.427892
-0.020899
-0.8603
-1.62423
-2.41042
-3.02448
-3.16093
-3.13716
-2.79446
-2.43409
-2.37222
-2.57738
-3.28185
-4.38031
-5.6815
-2.41079
-1.29469
-0.307383
0.280267
0.577837
0.388117
0.00697907
-0.617626
-1.42669
-2.01805
-2.55383
-2.66369
-2.58903
-2.29843
-2.06092
-1.96143
-2.15013
-2.7551
-3.58504
-4.66912
-1.9771
-1.13834
-0.228005
0.266785
0.439132
0.326488
-0.00683285
-0.565765
-1.21711
-1.6771
-2.04334
-2.20355
-2.19406
-1.90811
-1.7758
-1.6242
-1.7333
-2.28311
-3.02355
-3.89602
-1.63472
-0.815912
-0.19232
0.194257
0.365835
0.233274
0.00859092
-0.408584
-0.916978
-1.35517
-1.65703
-1.7859
-1.69352
-1.48751
-1.33015
-1.27275
-1.4083
-1.75038
-2.39804
-3.10965
-1.20155
-0.700061
-0.142273
0.0906759
0.235559
0.245702
-0.0238555
-0.25789
-0.693034
-1.01604
-1.23274
-1.3884
-1.36118
-1.14414
-1.04701
-0.982848
-1.15019
-1.41896
-1.83852
-2.42323
-0.86997
-0.471079
-0.166788
0.119592
0.192311
0.120438
-0.0280025
-0.141824
-0.506737
-0.695467
-0.875164
-0.834361
-0.924321
-0.825976
-0.691385
-0.745361
-0.683355
-0.922026
-1.32389
-1.66654
-0.482195
-0.308944
-0.0831604
0.0945368
0.142398
0.169384
-0.0589951
-0.220186
-0.291912
-0.461777
-0.583038
-0.623836
-0.579143
-0.50636
-0.409093
-0.37734
-0.463437
-0.590235
-0.789937
-1.03872
-0.148037
-0.0667233
-0.0117253
0.0200857
0.00228019
0.0307487
0.0117674
-0.11735
-0.139214
-0.122974
-0.143782
-0.217532
-0.164138
-0.119054
-0.164027
-0.175406
-0.153295
-0.169639
-0.283038
-0.34157
-2.77367
-1.47022
-0.248886
0.358401
0.663502
0.491721
-0.0464646
-0.685509
-1.46386
-2.28525
-2.7424
-2.9054
-2.8354
-2.5539
-2.25353
-2.24838
-2.4238
-3.11468
-4.12082
-5.39636
-2.34158
-1.22895
-0.293184
0.31498
0.527534
0.478136
0.126725
-0.509596
-1.30041
-1.75422
-2.24102
-2.43804
-2.40573
-2.10558
-1.9583
-1.81258
-2.0794
-2.6472
-3.44738
-4.48695
-1.92473
-1.01605
-0.21015
0.290774
0.452788
0.389502
0.0220409
-0.357338
-0.978006
-1.42978
-1.93874
-1.95377
-1.96638
-1.828
-1.53322
-1.52864
-1.66671
-2.1518
-2.95473
-3.74419
-1.62161
-0.842256
-0.158556
0.178332
0.41577
0.390494
0.10905
-0.378637
-0.784894
-1.22924
-1.48291
-1.66168
-1.57939
-1.39228
-1.27763
-1.14911
-1.34495
-1.75271
-2.29047
-2.87813
-1.21671
-0.69136
-0.179359
0.12736
0.26888
0.211579
0.12614
-0.235567
-0.614449
-0.943991
-1.0898
-1.23589
-1.13238
-1.09085
-0.977362
-0.957903
-1.03053
-1.36174
-1.74584
-2.22271
-0.88845
-0.552997
-0.124871
0.168722
0.217998
0.221793
0.0276225
-0.182521
-0.464397
-0.668511
-0.774556
-0.891548
-0.761876
-0.734769
-0.659806
-0.615407
-0.689614
-0.876595
-1.28131
-1.63293
-0.458384
-0.28693
-0.0823079
0.0575254
0.104423
0.119054
-0.00891139
-0.0132522
-0.241806
-0.49559
-0.542373
-0.489279
-0.467616
-0.422972
-0.387046
-0.394623
-0.377713
-0.628253
-0.731284
-0.917925
-0.15556
-0.0877759
-0.0622887
0.0488614
0.0648533
-0.0120288
-0.0285816
-0.02525
-0.0782506
-0.140302
-0.186643
-0.160034
-0.11078
-0.185885
-0.0657657
-0.0786948
-0.169346
-0.173368
-0.294968
-0.328848
-2.34266
-1.13393
-0.0898016
0.587453
0.881956
0.768144
0.313242
-0.22557
-1.11014
-1.75185
-2.24257
-2.40313
-2.28406
-2.10411
-1.90788
-1.95272
-2.1198
-2.7461
-3.82033
-4.88783
-2.06014
-0.93101
-0.12824
0.524997
0.761429
0.652303
0.307132
-0.268418
-0.873133
-1.43536
-1.82579
-2.08153
-1.91218
-1.7418
-1.54146
-1.49199
-1.77052
-2.38505
-3.15839
-4.14177
-1.71708
-0.792672
-0.0321788
0.528689
0.57772
0.647867
0.20097
-0.203582
-0.694404
-1.19365
-1.53059
-1.65217
-1.66914
-1.35819
-1.21703
-1.29367
-1.41635
-1.85529
-2.51455
-3.43041
-1.41393
-0.701683
-0.0217362
0.369101
0.565196
0.455718
0.324327
-0.0782034
-0.54025
-0.909855
-1.2153
-1.2789
-1.2021
-1.10504
-0.954919
-0.94867
-1.0865
-1.50238
-2.06647
-2.69436
-1.03219
-0.540874
-0.0277598
0.345013
0.461986
0.455953
0.179843
-0.0879973
-0.430797
-0.663871
-0.919729
-1.03594
-0.980666
-0.858933
-0.701592
-0.754482
-0.836678
-1.18383
-1.56435
-2.12589
-0.721142
-0.303598
0.0128567
0.172973
0.33174
0.283318
0.165693
-0.0901018
-0.311186
-0.435055
-0.559424
-0.75314
-0.683007
-0.589576
-0.532186
-0.498516
-0.602565
-0.778918
-1.11388
-1.46599
-0.448666
-0.204155
0.00967852
0.103145
0.230478
0.189333
0.136153
0.0324739
-0.121848
-0.215209
-0.313628
-0.389334
-0.355894
-0.267948
-0.262276
-0.256367
-0.266868
-0.457052
-0.63489
-0.813857
-0.17257
-0.170964
0.0279764
0.0194037
0.0440848
0.0288223
-0.0302252
-0.045616
-0.0145713
-0.0991942
-0.0744152
-0.156393
-0.0809091
-0.129775
-0.0928941
-0.050839
-0.104244
-0.193247
-0.226585
-0.291549
-1.9374
-0.737045
0.315598
0.87483
1.36569
1.17023
0.783246
0.194884
-0.388289
-1.07091
-1.3938
-1.61544
-1.65052
-1.4285
-1.28002
-1.26194
-1.49593
-2.22094
-3.25049
-4.41146
-1.6228
-0.656158
0.34592
0.888031
1.1568
1.12823
0.711374
0.250705
-0.253853
-0.844069
-1.1425
-1.37521
-1.25057
-1.172
-1.02412
-1.09558
-1.22928
-1.84442
-2.69667
-3.70691
-1.35327
-0.518234
0.275761
0.741736
0.886561
0.935772
0.607366
0.203094
-0.201942
-0.693865
-0.959861
-1.11426
-1.14288
-0.925506
-0.821832
-0.854385
-1.01316
-1.4797
-2.17527
-2.9178
-1.1252
-0.455851
0.154349
0.532053
0.760409
0.801064
0.527076
0.232008
-0.21043
-0.521293
-0.722672
-0.905707
-0.870115
-0.759873
-0.632352
-0.616286
-0.850156
-1.19243
-1.76885
-2.44001
-0.811422
-0.352315
0.166516
0.437805
0.610286
0.564222
0.441693
0.179138
-0.0445178
-0.381739
-0.581695
-0.576626
-0.646889
-0.52921
-0.497533
-0.474107
-0.547804
-0.849852
-1.3579
-1.80538
-0.645298
-0.242381
0.201829
0.366126
0.437172
0.388848
0.222798
0.164138
-0.120392
-0.219445
-0.462204
-0.42836
-0.438772
-0.328684
-0.408923
-0.279354
-0.408324
-0.617798
-0.963681
-1.29161
-0.416432
-0.187249
0.0389906
0.293459
0.268496
0.31957
0.250097
0.0370889
-0.0469254
-0.145943
-0.282448
-0.372638
-0.302618
-0.265578
-0.0984251
-0.0880806
-0.218576
-0.340699
-0.594491
-0.686865
-0.153463
-0.0835491
-0.0124658
0.0800584
0.0701333
0.0454755
0.120203
0.0076443
0.00386748
-0.0746378
-0.0301035
-0.0968691
-0.123128
-0.154516
-0.0797018
-0.0384651
-0.0282131
-0.142913
-0.225227
-0.193186
-1.29238
-0.194308
0.857163
1.54227
1.85578
1.79876
1.55336
1.04657
0.437647
-0.0762629
-0.499029
-0.635923
-0.666792
-0.559572
-0.547822
-0.588572
-0.896348
-1.50515
-2.4783
-3.53254
-1.13492
-0.112298
0.771399
1.36391
1.631
1.53195
1.33684
0.939362
0.480432
-0.0104102
-0.364864
-0.61896
-0.45811
-0.355781
-0.405752
-0.395719
-0.680015
-1.26977
-2.05704
-2.98948
-0.814333
-0.0995564
0.720908
1.13544
1.34079
1.33698
1.17175
0.794138
0.436455
-0.0493691
-0.236429
-0.388997
-0.397005
-0.284802
-0.217999
-0.278564
-0.474527
-0.979445
-1.67869
-2.48225
-0.736965
-0.0412854
0.511055
0.937925
1.22722
1.07037
0.902405
0.70264
0.362442
0.0582231
-0.156824
-0.304055
-0.253529
-0.254624
-0.22101
-0.193804
-0.324954
-0.728729
-1.35881
-1.84246
-0.516135
-0.0426633
0.425985
0.690818
0.883208
0.944691
0.797391
0.503937
0.281737
0.0562334
-0.108735
-0.172344
-0.174735
-0.168892
-0.0406732
-0.134292
-0.119073
-0.533233
-0.956059
-1.47063
-0.390859
-0.0590818
0.246818
0.522897
0.62036
0.622226
0.591742
0.358058
0.207566
0.0208816
-0.0439791
-0.151531
-0.1481
-0.0805609
-0.0558984
-0.000699881
-0.239196
-0.383614
-0.653375
-1.12816
-0.211605
-0.00619409
0.217836
0.287356
0.441265
0.294831
0.376269
0.235204
0.0641901
0.0479756
-0.0827455
-0.0935665
-0.154805
-0.0441666
-0.0291088
-0.0604541
-0.0645706
-0.264343
-0.47724
-0.589275
-0.118762
-0.00353857
0.0461922
0.13506
0.062214
0.117286
0.0962178
-0.00645614
-0.0217034
0.0717533
-0.0131947
0.00625491
0.00366086
-0.0257228
-0.0270598
-0.0335276
-0.178176
-0.107079
-0.147672
-0.228395
-0.55427
0.641516
1.65771
2.32618
2.70513
2.64695
2.3336
1.95643
1.48809
0.965893
0.652612
0.487547
0.455173
0.530107
0.51523
0.464563
0.00933251
-0.566999
-1.5904
-2.68587
-0.34906
0.546431
1.52077
2.04254
2.27808
2.37336
2.0557
1.71913
1.34739
0.965658
0.660269
0.544129
0.471631
0.604427
0.470407
0.412606
0.197251
-0.429977
-1.30394
-2.14641
-0.304447
0.476281
1.2244
1.73239
1.98225
2.00284
1.737
1.46127
1.0735
0.83909
0.56763
0.458715
0.471121
0.476401
0.552342
0.450225
0.0952029
-0.302017
-1.03684
-1.77924
-0.251469
0.389419
0.951989
1.39511
1.58394
1.65669
1.45724
1.23611
0.977589
0.728432
0.510422
0.383355
0.417768
0.429423
0.462739
0.377476
0.190463
-0.265763
-0.771018
-1.40584
-0.15261
0.372588
0.780795
1.12169
1.25587
1.22511
1.16982
0.939956
0.813611
0.57088
0.437231
0.341445
0.367105
0.363227
0.346787
0.320966
0.228704
-0.127904
-0.537808
-1.00669
-0.0725412
0.218639
0.612978
0.769586
0.916281
0.903403
0.825319
0.688917
0.553119
0.31443
0.335932
0.190873
0.251367
0.216481
0.227929
0.192016
0.0537387
-0.0320123
-0.377064
-0.770092
-0.121554
0.145302
0.292722
0.401295
0.506501
0.518581
0.507485
0.455228
0.331201
0.249084
0.198751
0.146663
0.241349
0.142263
0.196777
0.227693
0.113576
-0.0596296
-0.144464
-0.424196
-0.0358667
-0.0151399
0.0956133
0.14281
0.130198
0.178564
0.141734
0.17333
0.147588
0.0951895
0.104675
0.0118227
0.0875414
0.0942079
0.0944436
0.0528715
0.0616769
-0.0382469
-0.145782
-0.153076
0.441823
1.55506
2.52395
3.17827
3.65139
3.59445
3.44929
3.06423
2.71501
2.26555
2.0191
1.73856
1.7721
1.73084
1.68386
1.51694
1.05569
0.49107
-0.537993
-1.64411
0.428103
1.35388
2.21672
2.90154
3.08812
3.12916
3.01466
2.66104
2.3798
2.02814
1.75462
1.60612
1.5969
1.59298
1.57569
1.42055
1.09577
0.585684
-0.388959
-1.34672
0.42739
1.08481
1.83464
2.41095
2.67412
2.73332
2.52269
2.31986
2.04966
1.75632
1.46633
1.42383
1.27774
1.42568
1.3299
1.24707
0.968781
0.519771
-0.226592
-0.947744
0.350798
0.910356
1.58419
1.94351
2.14536
2.17175
2.06809
1.82648
1.63752
1.39947
1.26502
1.11849
1.13536
1.15225
1.14168
1.07447
0.873715
0.447841
-0.158198
-0.792491
0.280175
0.753064
1.1492
1.5295
1.62855
1.72482
1.65439
1.49805
1.22789
1.12529
1.05765
0.917999
0.896305
0.930202
0.86574
0.861641
0.650651
0.427768
-0.0215651
-0.564485
0.24261
0.446408
0.857294
1.05062
1.24657
1.27385
1.19992
1.05831
0.940754
0.777227
0.706354
0.681085
0.689294
0.62879
0.670853
0.608962
0.39963
0.256287
-0.062976
-0.357368
0.093161
0.305061
0.491459
0.680288
0.723901
0.716163
0.70868
0.622481
0.581512
0.535048
0.485947
0.408572
0.408189
0.450936
0.527083
0.391602
0.264895
0.232948
-0.0523328
-0.172451
0.128213
0.0716257
0.160873
0.173685
0.176844
0.249012
0.181952
0.216202
0.185643
0.208308
0.174999
0.183854
0.161708
0.132205
0.129211
0.094164
0.170219
0.0409248
-0.0616286
-0.107107
1.43231
2.59219
3.5486
4.2365
4.60036
4.67694
4.6793
4.40121
3.93869
3.67978
3.43493
3.25519
3.16088
3.02344
2.89202
2.68465
2.32174
1.6572
0.600555
-0.523187
1.34646
2.26244
2.99269
3.71101
4.02511
4.16918
4.02333
3.77733
3.40854
3.19582
2.9506
2.72665
2.75823
2.67432
2.70837
2.43013
2.10483
1.54805
0.580892
-0.332665
1.16432
1.86702
2.59193
3.10284
3.445
3.4421
3.38824
3.19355
2.99666
2.63331
2.52376
2.43151
2.31921
2.31524
2.29711
2.09616
1.78885
1.3071
0.640524
-0.166665
1.0181
1.60257
2.11515
2.58614
2.70171
2.83996
2.75856
2.64746
2.45339
2.23144
2.02931
2.04102
1.92379
1.96351
1.97559
1.78866
1.55472
1.1257
0.538996
-0.14653
0.787011
1.20121
1.67349
1.98259
2.13438
2.24568
2.16313
2.07325
1.87667
1.65343
1.65003
1.58924
1.52865
1.56627
1.45373
1.39305
1.1653
0.865062
0.41718
-0.02982
0.483463
0.838165
1.17925
1.49535
1.54822
1.59656
1.53836
1.37995
1.41689
1.22604
1.14917
1.09254
1.07338
1.14083
1.06882
1.02782
0.87796
0.706164
0.288604
-0.0566491
0.292348
0.49621
0.774219
0.850214
0.99492
0.9925
0.951408
0.88213
0.764528
0.79701
0.716013
0.618114
0.702689
0.659654
0.620456
0.562488
0.446766
0.364747
0.209093
0.0095958
0.0859031
0.189942
0.324088
0.278985
0.297939
0.351854
0.266881
0.343759
0.302438
0.217742
0.231007
0.235123
0.189749
0.184484
0.202909
0.22889
0.186887
0.170507
0.0622034
0.0238173
2.5804
3.58078
4.66122
5.33952
5.73334
5.87502
5.80723
5.64417
5.27481
5.03734
4.77833
4.52244
4.44213
4.44637
4.27857
4.05379
3.48765
2.78954
1.73244
0.617711
2.21835
3.10688
3.98265
4.52792
4.88474
5.08574
4.99234
4.81545
4.55363
4.35113
4.11116
4.03123
3.85886
3.78687
3.76689
3.56498
3.08423
2.4881
1.62234
0.713673
1.94111
2.63796
3.33693
3.85849
4.16617
4.27822
4.18091
4.11139
3.8169
3.70462
3.45892
3.37636
3.25094
3.27031
3.18862
3.0153
2.75659
2.13502
1.432
0.672465
1.57427
2.09851
2.74364
3.10643
3.35289
3.45768
3.42687
3.38183
3.16258
3.02312
2.82921
2.77116
2.70881
2.69436
2.57882
2.45251
2.20948
1.73162
1.17538
0.606599
1.18465
1.67654
2.08805
2.49207
2.65761
2.72628
2.66926
2.56202
2.45404
2.30471
2.19224
2.20436
2.15314
2.07544
1.96365
1.93669
1.72473
1.39021
0.939002
0.5231
0.902326
1.25902
1.50155
1.70646
1.85281
1.8678
1.9303
1.83515
1.74392
1.61852
1.60764
1.50133
1.48941
1.46466
1.43262
1.38463
1.25018
0.98368
0.637786
0.381239
0.497722
0.757086
0.892239
0.983408
1.18884
1.23466
1.14177
1.10207
1.10723
0.987314
0.91215
0.975403
0.974682
0.973296
0.934406
0.755758
0.753551
0.610545
0.399844
0.233846
0.214218
0.273308
0.309419
0.308595
0.417758
0.396318
0.412893
0.405571
0.389719
0.337269
0.281706
0.359617
0.30041
0.284306
0.305495
0.20347
0.233772
0.231695
0.191529
0.060673
3.47431
4.50233
5.42222
6.25381
6.6243
6.7737
6.65886
6.56312
6.37764
6.14463
5.82245
5.69284
5.60877
5.43133
5.28966
4.96887
4.53968
3.80849
2.75345
1.61198
2.92535
3.84795
4.74071
5.25892
5.66052
5.73565
5.76798
5.70655
5.43786
5.19046
5.04209
4.93436
4.7943
4.70824
4.52374
4.28024
3.90609
3.21204
2.43988
1.53297
2.49281
3.23115
3.89222
4.45629
4.77035
4.8001
4.84787
4.72648
4.5353
4.39326
4.25583
4.17033
4.01391
3.9299
3.90722
3.69216
3.30978
2.71616
1.98546
1.29877
1.95397
2.53069
3.18353
3.61114
3.90664
3.91681
3.94283
3.85079
3.7464
3.54607
3.37145
3.40042
3.30849
3.28191
3.15112
2.99577
2.66197
2.30519
1.71858
1.05844
1.52638
1.97913
2.39737
2.74935
2.95645
3.03228
3.00318
3.01732
2.84189
2.76237
2.65865
2.62089
2.60054
2.48317
2.43843
2.23287
2.05773
1.79678
1.2857
0.848126
1.10212
1.38109
1.73723
2.01315
2.13416
2.2056
2.12159
2.11361
2.11037
1.90964
1.88791
1.84993
1.85593
1.78332
1.64038
1.62458
1.44777
1.27278
1.02588
0.617737
0.620255
0.806383
1.04448
1.18385
1.19882
1.35642
1.24906
1.29322
1.27019
1.16638
1.17413
1.15431
1.14224
1.07949
1.05413
1.08033
0.871596
0.786825
0.557045
0.34888
0.161704
0.217263
0.373919
0.345266
0.408823
0.427257
0.447989
0.480396
0.369533
0.417867
0.353163
0.342626
0.307996
0.369348
0.332492
0.307791
0.32504
0.23602
0.104523
0.0952515
)
;

boundaryField
{
    hotSide
    {
        type            calculated;
        value           nonuniform List<scalar> 
400
(
-0.170572
-0.027096
-0.121908
-0.148538
-0.473464
-0.723702
-1.06942
-1.23474
-1.55367
-1.55636
-1.58135
-1.4008
-0.936824
-0.494947
0.19047
0.972842