/*--------------------------------*- C++ -*----------------------------------*\
| =========                 |                                                 |
| \\      /  F ield         | OpenFOAM: The Open Source CFD Toolbox           |
|  \\    /   O peration     | Version:  2212                                  |
|   \\  /    A nd           | Website:  www.openfoam.com                      |
|    \\/     M anipulation  |                                                 |
\*---------------------------------------------------------------------------*/
FoamFile
{
    version     2.0;
    format      ascii;
    arch        "LSB;label=32;scalar=64";
    class       volScalarField;
    location    "0";
    object      relativeErrorField;
}
// * * * * * * * * * * * * * * * * * * * * * * * * * * * * * * * * * * * * * //

dimensions      [0 0 0 1 0 0 0];

internalField   nonuniform List<scalar> 
3200
(
0.00396478
0.00180387
0.00685058
0.0100269
0.0120059
0.0123786
0.0124422
0.0119595
0.0109054
0.0102108
0.00946511
0.00824256
0.00754448
0.00700218
0.0060717
0.00470229
0.00277073
0.000839862
0.00583441
0.011775
0.00333949
0.00186944
0.00616842
0.00909392
0.010561
0.01092
0.0111807
0.0105464
0.00983223
0.00910341
0.00820489
0.00727302
0.006718
0.00598831
0.00549041
0.00442114
0.00260378
0.000337142
0.00511899
0.00983278
0.00259846
0.00165835
0.00515351
0.007667
0.00907564
0.00953677
0.00950239
0.00915283
0.00857776
0.00771223
0.00708347
0.0065403
0.00606
0.00536532
0.00485483
0.00390114
0.00225768
0.000230837
0.00418578
0.00807147
0.00187503
0.00140329
0.00441173
0.00658809
0.00761255
0.00785799
0.00772638
0.00764204
0.00734931
0.0066229
0.00591488
0.00546652
0.00506448
0.0045885
0.00422423
0.0032318
0.00189973
4.28134e-05
0.00322175
0.00666319
0.00151622
0.000916887
0.00344369
0.00488229
0.00623006
0.00654852
0.0062825
0.00619133
0.00583737
0.00526392
0.00473357
0.00448777
0.00398773
0.00360251
0.00314885
0.0027556
0.00180121
0.000152235
0.00242252
0.00511481
0.00108888
0.00068664
0.00246846
0.00372026
0.00445197
0.00463631
0.00462002
0.00421292
0.00420778
0.00372277
0.00345569
0.00320989
0.00280863
0.00266795
0.0022243
0.002142
0.0010922
0.000235798
0.00182019
0.00369025
0.000463228
0.000382244
0.00169318
0.00229683
0.00251755
0.00298873
0.00304693
0.00265824
0.00254959
0.00242098
0.00231856
0.00208316
0.0015576
0.00159886
0.00153246
0.00113585
0.000811004
7.49081e-05
0.00111353
0.00205049
6.1915e-05
0.000261762
0.000164019
0.000848628
0.00099791
0.00112128
0.0011877
0.00094307
0.000685254
0.000683038
0.000847216
0.000594592
0.000651918
0.00053661
0.000618625
0.000373886
0.00041982
0.00027612
0.000492983
0.000872282
0.00355761
0.00181185
0.00685615
0.00963561
0.0115008
0.0120491
0.0115917
0.0109592
0.00986312
0.0086729
0.00783607
0.00715257
0.00626587
0.0057983
0.00523352
0.004124
0.00248226
0.000983134
0.0059255
0.0116809
0.00315659
0.00156875
0.00607091
0.00891278
0.0101009
0.0104569
0.0104189
0.00972398
0.00873018
0.00801195
0.00707897
0.0063291
0.00563036
0.00531913
0.00480496
0.00386127
0.00226901
0.000743369
0.00504977
0.0096567
0.00246899
0.00147985
0.00496611
0.00746877
0.00862455
0.00916566
0.00895163
0.00824877
0.00760111
0.00694384
0.00586111
0.00571013
0.00520115
0.00465336
0.00439109
0.00343136
0.00192553
0.00056025
0.0040582
0.00827048
0.00196021
0.00122333
0.00437583
0.0060943
0.00721049
0.00755878
0.00757595
0.00697519
0.00647215
0.00580784
0.00503123
0.00467963
0.00440153
0.00416523
0.00356815
0.00303436
0.00175379
0.000408389
0.00350759
0.00658202
0.00142047
0.000957327
0.00323511
0.00526657
0.00589171
0.00615091
0.00596229
0.00542711
0.00537054
0.00472344
0.00414961
0.00358407
0.0035596
0.00335371
0.00306959
0.00263322
0.00138436
8.36705e-05
0.00268863
0.00529101
0.0011458
0.000698688
0.00252181
0.00345944
0.00431062
0.00436336
0.00418196
0.00407636
0.00388053
0.00343217
0.0032501
0.00274561
0.00247838
0.00236463
0.00213723
0.00182569
0.000861423
4.31744e-05
0.00177594
0.0036036
0.000706094
0.000217941
0.00145277
0.00218817
0.00265662
0.00281439
0.00264818
0.002621
0.00255762
0.00238342
0.00188129
0.00185091
0.00156818
0.00154639
0.00142733
0.00116336
0.000531792
0.000194638
0.0012385
0.00221283
0.000129889
0.000203723
0.000628037
0.00061527
0.000862473
0.000837163
0.000861473
0.000970309
0.00082793
0.000889246
0.000555402
0.000600118
0.000595853
0.000526252
0.000478586
0.000375325
0.000160416
0.000183559
0.000549769
0.000680022
0.00383843
0.0017794
0.00632584
0.00934251
0.0108685
0.0109401
0.0103706
0.00917075
0.00821726
0.0067603
0.00586013
0.00487
0.00455397
0.00423627
0.0038556
0.00309067
0.00156738
0.00173973
0.00617207
0.0119065
0.00300412
0.00155668
0.0054435
0.00833916
0.00961221
0.00975505
0.00930129
0.00816215
0.00712835
0.00632603
0.005261
0.00466759
0.00431712
0.00398807
0.00370648
0.00277924
0.00151617
0.00109462
0.0054074
0.010002
0.00276094
0.00119933
0.00490566
0.00725611
0.00820094
0.0084702
0.00786364
0.00724568
0.00644113
0.00548969
0.0048734
0.00419525
0.00376454
0.0036037
0.00333876
0.00272577
0.00140317
0.000906523
0.00480687
0.00826137
0.00207228
0.00115022
0.00409944
0.00597489
0.00682342
0.00712958
0.00646544
0.00634738
0.00551
0.00454766
0.00380406
0.00348841
0.00337135
0.00298853
0.00269478
0.00246671
0.00136224
0.000621644
0.00364789
0.00680162
0.00174009
0.000950426
0.00316035
0.00472053
0.00544894
0.0054834
0.00535819
0.00499955
0.00429421
0.00391249
0.00318694
0.00260065
0.00258119
0.00250971
0.00224631
0.00194837
0.000944862
0.000338733
0.00269086
0.00535636
0.0011429
0.000733091
0.00233607
0.00325011
0.00401905
0.00402351
0.00396459
0.00362185
0.00318964
0.00277641
0.00229075
0.00208101
0.00194697
0.00197426
0.00142815
0.00148086
0.00116002
0.000467091
0.00205967
0.00384418
0.000516885
0.000291749
0.00139221
0.00193803
0.00220263
0.00243858
0.00239814
0.00238644
0.00182626
0.001696
0.00144741
0.00124735
0.00100213
0.00103579
0.000976682
0.000938728
0.000419413
2.11316e-07
0.00108507
0.00229279
0.000180958
3.53785e-05
0.000393139
0.000864521
0.000649726
0.000870841
0.00108997
0.000635876
0.000549552
0.000560973
0.000613833
0.000289744
0.000205836
0.000409064
0.00057267
0.000387229
0.000225577
4.57761e-05
0.000587255
0.000733693
0.00392819
0.00124099
0.00550548
0.00840705
0.00946294
0.00957467
0.00869318
0.00759651
0.00622562
0.00474076
0.00339654
0.00281694
0.00237326
0.00238637
0.00211967
0.00159315
0.000265655
0.00228789
0.00697833
0.0124297
0.00363554
0.000826888
0.00516972
0.00751052
0.00833771
0.00860036
0.00785004
0.00674614
0.00564575
0.00435827
0.00308194
0.0026496
0.00229006
0.0020876
0.00221399
0.00166922
0.000619756
0.0020754
0.00607962
0.0106085
0.0030932
0.000765333
0.00421264
0.00646705
0.00706517
0.00740325
0.00695355
0.00596045
0.00494444
0.00374196
0.00303862
0.00229283
0.00202446
0.00200819
0.00187375
0.00156579
0.000411311
0.00155927
0.00477558
0.00859987
0.00226507
0.000936267
0.00353787
0.00553521
0.00640096
0.00613687
0.00567782
0.00468098
0.00417537
0.0030315
0.00246926
0.00200229
0.00182364
0.00182613
0.00162586
0.00141793
0.000432552
0.00126662
0.00397498
0.00698688
0.0017815
0.000626063
0.00278215
0.00416761
0.00473433
0.00500542
0.00470754
0.00403472
0.00339178
0.00263705
0.0018425
0.00161686
0.00153469
0.00145178
0.00154229
0.00116624
0.000354664
0.00103038
0.00318494
0.00531818
0.00126495
0.000368934
0.00211629
0.00310928
0.00368956
0.00346429
0.00317688
0.00285229
0.00242689
0.0017915
0.00161029
0.00121088
0.00125779
0.0011336
0.000907578
0.00091354
0.000386445
0.000928592
0.0022599
0.00401312
0.000778531
0.000406084
0.00106396
0.00169054
0.00206818
0.00234063
0.00221992
0.00187521
0.00160013
0.00104981
0.00116004
0.000555852
0.000920917
0.000551066
0.000456354
0.000649714
0.000102032
0.000636157
0.00141467
0.00240148
0.000272389
0.000410738
0.000479273
0.000659174
0.000626821
0.00069248
0.000743011
0.000895396
0.000682785
0.000388712
0.000256976
4.22562e-05
0.000232768
0.000193622
0.000265845
0.00045021
0.00024226
0.000203436
0.000547321
0.000941894
0.00487463
0.000362248
0.00472423
0.00721616
0.00837248
0.00784697
0.00711786
0.0055557
0.00350405
0.00224357
0.000773718
0.000203712
5.45401e-05
3.22307e-05
0.000306207
0.000204718
0.00128376
0.00382049
0.00804733
0.0130207
0.00416815
3.18922e-05
0.00407989
0.00621195
0.00717801
0.00717281
0.00628525
0.00495259
0.00346288
0.00206074
0.0007132
0.000524571
0.000166002
0.000403762
0.000534048
0.000374953
0.000846755
0.00314709
0.0069652
0.0112172
0.00345372
0.000245141
0.00347385
0.00548132
0.00621625
0.00640314
0.00547914
0.0044596
0.00293011
0.00185513
0.000901641
0.000392583
0.000344645
0.00047108
0.000503838
0.000329098
0.000742886
0.00279638
0.00563199
0.00910401
0.00280612
5.36753e-05
0.00285906
0.00456573
0.00531801
0.00528666
0.00466603
0.00362527
0.00269316
0.00143099
0.000797371
0.000287868
0.000694434
0.000218504
0.000549144
0.00036453
0.000348681
0.00205544
0.00481652
0.00755657
0.0021578
0.000399912
0.00211148
0.00363488
0.00393942
0.00407971
0.00366797
0.00316937
0.00208573
0.00128272
0.000799239
0.000505553
8.86973e-05
0.000420437
0.000510112
0.000223251
0.000280128
0.00172574
0.00346087
0.00593495
0.00176346
7.68415e-06
0.00167515
0.00267431
0.00318641
0.00315223
0.00288716
0.00213657
0.00175811
0.00085996
0.00071674
0.000360956
0.000233479
0.000290398
0.000283931
0.000317797
0.000252921
0.00118548
0.00267446
0.00424692
0.00108246
5.97908e-05
0.00106661
0.00141913
0.00192724
0.00186158
0.00170362
0.00125793
0.00102261
0.000775479
0.000294047
0.000298325
0.000372823
0.000289758
0.000388013
0.000188231
0.000170671
0.0005824
0.00179178
0.00228469
0.000423304
0.000255897
0.00024738
0.000495686
0.000633998
0.000634257
0.000475844
0.000354141
0.000292165
0.000273786
0.00020644
4.3699e-05
3.60658e-05
6.76714e-05
1.03758e-05
2.00645e-05
1.13949e-05
2.26387e-05
0.000554608
0.000555297
0.00560912
0.00076361
0.0033718
0.00592841
0.00668664
0.00646113
0.00529042
0.00356396
0.00159525
0.000367978
0.00183675
0.0025081
0.00226591
0.0018798
0.00196638
0.00167409
0.00276095
0.00511432
0.00930137
0.0140029
0.00491394
0.000703822
0.00306754
0.00503634
0.00592596
0.00572882
0.00455974
0.0031255
0.00153296
0.000169084
0.00132263
0.00193024
0.00214547
0.0017273
0.0010359
0.00143463
0.00223082
0.00423584
0.00772003
0.0119799
0.00431157
0.00076544
0.00251837
0.00432688
0.00505003
0.00493444
0.00430536
0.00275929
0.00138152
1.49065e-06
0.00100236
0.00152905
0.00156125
0.00125074
0.00103488
0.000992019
0.0018218
0.00352331
0.00649147
0.0100103
0.00332959
0.000376521
0.00229018
0.00352535
0.00428213
0.00406931
0.00330757
0.00250136
0.00110011
0.000226654
0.000492559
0.00122345
0.00128608
0.000941072
0.000705139
0.000733607
0.00135793
0.0028986
0.005465
0.00825174
0.00261875
0.000566718
0.00152003
0.00304239
0.00338343
0.00336808
0.00282757
0.00205427
0.00102414
0.000103097
0.000562019
0.000779066
0.000704761
0.00060724
0.00052964
0.000592921
0.000983372
0.00222361
0.00429371
0.00621733
0.00190988
0.000154473
0.00119079
0.00190418
0.00255472
0.00246934
0.00165206
0.00148359
0.000901645
0.000291068
0.000285666
0.000881474
0.000523893
0.000329487
0.000503041
0.000298079
0.000931152
0.00166278
0.00278878
0.00443687
0.000969807
0.000237848
0.000733209
0.00110234
0.00171982
0.00155889
0.0013953
0.000923932
0.000640215
0.000200954
0.000337464
0.000411655
0.000450982
0.000331828
0.00020431
9.02551e-05
0.000420525
0.000870026
0.00204901
0.00270006
0.000382059
0.000114714
0.000187639
0.000394535
0.000442996
0.000558811
0.000430535
3.90882e-05
0.000367794
1.10102e-05
0.000137776
8.7899e-05
0.000117636
5.74988e-05
0.00012542
6.11007e-05
5.16605e-05
0.000294246
0.000729339
0.00101719
0.00661609
0.00185545
0.00202397
0.00459632
0.00528521
0.00487328
0.00350356
0.00167782
0.000496293
0.00246556
0.00411242
0.00471101
0.00470136
0.00397359
0.00354561
0.00344561
0.00440493
0.00654441
0.0104479
0.0147996
0.00562448
0.00174217
0.00177389
0.00376942
0.00486734
0.00445749
0.00314305
0.00165752
0.000297695
0.00224183
0.00338986
0.00401584
0.00380826
0.00314068
0.00294025
0.00289731
0.00346975
0.00563863
0.00895023
0.0127088
0.00466463
0.00149638
0.00153551
0.00317567
0.00407507
0.00361965
0.00277907
0.00148951
0.000128185
0.00173002
0.00282641
0.0032729
0.00303101
0.00247229
0.00230557
0.00257192
0.00296302
0.0048011
0.00740452
0.0107401
0.00385916
0.00119308
0.0012813
0.00295354
0.00338064
0.00318727
0.00238147
0.00135111
0.000112914
0.00115185
0.00223174
0.00266536
0.00266178
0.00238083
0.00156633
0.00173947
0.00228061
0.00380552
0.00616686
0.00878324
0.0030458
0.000913085
0.000954701
0.00221831
0.0025956
0.00251911
0.00172289
0.00106708
1.69987e-05
0.000901186
0.00161621
0.00186607
0.00184162
0.00133763
0.00153742
0.00138596
0.001538
0.00283688
0.00469635
0.00670135
0.001905
0.000870746
0.00054224
0.00175036
0.00180987
0.00213396
0.0014025
0.000779808
6.37931e-05
0.000744851
0.00145505
0.00157462
0.00163201
0.00121402
0.000902573
0.00105991
0.00119684
0.00215881
0.00341968
0.00497223
0.00140473
0.000493129
0.000666038
0.00109598
0.00132514
0.00109014
0.000923393
0.000404646
6.24178e-05
0.000561906
0.000851644
0.000698464
0.000866477
0.00072619
0.000525728
0.000418982
0.000825572
0.00128963
0.00238443
0.00305265
0.00043538
0.000186316
0.000263681
0.000491745
0.000357045
0.000501429
0.000142148
0.000159312
0.000107683
0.00029316
0.000334996
2.44091e-05
0.000471544
0.000136792
0.000201149
0.00014238
0.000280736
0.000247934
0.000894094
0.00087275
0.00711067
0.00298795
0.000838332
0.00321037
0.00381037
0.00313303
0.00191793
8.48434e-05
0.00230333
0.00462213
0.00613756
0.00678971
0.00651684
0.00572554
0.00487073
0.00472221
0.00563457
0.00755234
0.0112645
0.0158073
0.00618576
0.00262731
0.000746553
0.00280466
0.00347909
0.00324274
0.00172024
2.65762e-05
0.00167317
0.00380684
0.00512716
0.00563153
0.00565456
0.00476744
0.00421798
0.00409061
0.00473717
0.00680973
0.00954044
0.0130835
0.00517169
0.00212631
0.000505844
0.00236546
0.00307556
0.00261137
0.00165209
9.94894e-05
0.0015104
0.00317995
0.0045326
0.00497117
0.00446813
0.00383754
0.00334169
0.00322492
0.00403945
0.00548524
0.00835456
0.0109177
0.0045451
0.00176598
0.000696843
0.00188645
0.00263064
0.00215925
0.00132181
0.00010884
0.00120981
0.00259096
0.00343533
0.00395794
0.00342912
0.00337385
0.00273049
0.00259591
0.0032662
0.00444551
0.0070879
0.00907527
0.00361027
0.00176153
0.00052736
0.00159443
0.0021859
0.00195707
0.00128448
0.000225176
0.00093133
0.00190039
0.00293272
0.00301721
0.00291631
0.0025909
0.00205409
0.00190634
0.00247009
0.00370744
0.00537219
0.00726673
0.00248562
0.00109935
0.000301086
0.00133832
0.00151204
0.00126199
0.000908917
8.30101e-05
0.000777724
0.00136061
0.00165432
0.00213641
0.00208304
0.00181186
0.0014833
0.00143948
0.00177921
0.00269627
0.0038591
0.00501594
0.00182844
0.000440181
0.000357401
0.000818888
0.000956096
0.000642598
0.000598708
0.000175801
0.000455184
0.000816821
0.00105874
0.00158418
0.001373
0.00116594
0.00076881
0.00108537
0.000975093
0.00165643
0.00218932
0.00309906
0.00065772
0.000227071
7.64423e-05
6.60366e-05
0.000251554
0.000311812
6.65613e-05
4.91795e-05
0.000217232
0.000394047
0.000418943
0.000638081
0.000660585
0.00025309
0.000317938
0.000273459
0.00043147
0.000244516
0.000722085
0.00109803
0.00804027
0.00374744
0.000386241
0.00210047
0.00287293
0.00216663
0.000785314
0.0013081
0.00336436
0.00605441
0.00737417
0.00818317
0.00773902
0.00690483
0.00637115
0.00587466
0.00682035
0.00868222
0.0120612
0.0160513
0.00693193
0.0032461
0.000212797
0.00162333
0.00268088
0.00187692
0.000773937
0.000937737
0.00298623
0.00513615
0.00624886
0.00696241
0.00668135
0.00577432
0.00534044
0.00486404
0.00556392
0.0073982
0.0103221
0.0136707
0.00561696
0.0025837
0.000210856
0.00151409
0.00224357
0.00178635
0.000702714
0.000620885
0.00271649
0.00427005
0.00532407
0.00580679
0.00551635
0.00503748
0.0043544
0.00429974
0.00447557
0.00622421
0.00879339
0.0115654
0.00480542
0.00241231
0.00017667
0.00127943
0.00187291
0.00158674
0.000607124
0.000425751
0.00216292
0.0032222
0.004411
0.00480886
0.00451372
0.00377305
0.00339719
0.00303284
0.0037726
0.00494013
0.00718105
0.00927482
0.00353518
0.00186574
0.000120371
0.00104245
0.00156148
0.0014471
0.000453369
0.00055227
0.00151449
0.00268632
0.00339889
0.00343862
0.00373396
0.00323576
0.00248656
0.00248628
0.00300306
0.00382858
0.00564949
0.0073071
0.00282692
0.00140549
0.000181459
0.000794378
0.0011219
0.00090564
0.000473592
0.000240865
0.00112564
0.00184939
0.00255545
0.00268622
0.00273426
0.00216265
0.00209055
0.00197095
0.0023589
0.00277782
0.00414398
0.00543648
0.00154067
0.000674816
0.000110571
0.000322534
0.000726469
0.000870423
0.000304657
0.000304427
0.00055538
0.00109631
0.00157004
0.00154841
0.00171461
0.00128885
0.00110809
0.00104091
0.00128042
0.0019119
0.00260954
0.0033498
0.000755987
0.000354148
7.094e-06
9.29785e-05
7.28374e-05
0.000252787
7.52906e-05
3.87442e-05
0.000400407
0.000405549
0.000381405
0.000445697
0.000642668
0.000389725
0.000344363
0.000420309
0.000462026
0.000550622
0.000723092
0.000982423
0.00807835
0.00424983
0.00067986
0.00124281
0.00199638
0.00146337
1.87073e-05
0.00181113
0.00431119
0.00671012
0.00834571
0.00876138
0.00853383
0.00759149
0.00682535
0.0063902
0.00703651
0.00880812
0.0122169
0.0159943
0.00710359
0.0037495
0.000534643
0.00118966
0.00193268
0.00172849
2.33516e-05
0.00161356
0.00374325
0.00569605
0.00711929
0.00773607
0.00729361
0.00652346
0.00588792
0.00555939
0.00613837
0.00776163
0.0105429
0.013814
0.00581434
0.00325454
0.000628614
0.00112211
0.00155944
0.00124454
0.000293044
0.00111519
0.00320257
0.00490672
0.00622766
0.00624841
0.00597949
0.00547355
0.00463347
0.00443397
0.00520373
0.00665633
0.00876303
0.0116059
0.0048096
0.00269685
0.000277305
0.000929431
0.00132933
0.00120322
0.00016769
0.00114275
0.00260345
0.00380349
0.00474401
0.00517042
0.00492872
0.0047826
0.00426039
0.0037203
0.00391969
0.00543529
0.0071613
0.00938886
0.00381233
0.00211238
0.000288993
0.00091182
0.00120729
0.00110231
0.000231781
0.000968692
0.00204168
0.00312862
0.00387876
0.0040406
0.00402113
0.00345477
0.00309572
0.0030571
0.00305437
0.00409884
0.00578769
0.00706038
0.00278212
0.00155199
0.000407284
0.000556478
0.00106329
0.000738584
0.000216436
0.000406476
0.00137725
0.00238584
0.00276433
0.0028428
0.00266085
0.00250928
0.00229259
0.00211951
0.00257988
0.00283131
0.00412816
0.00524255
0.00144596
0.00103787
0.000179337
0.000536204
0.000678439
0.000342065
8.51232e-05
0.000334194
0.00096419
0.00136017
0.00180699
0.00182921
0.00175967
0.00161211
0.00116793
0.00137695
0.00160824
0.00179714
0.00256209
0.00305099
0.000418008
0.000399922
0.000102275
7.70298e-06
0.000293153
0.000282169
0.000137293
9.01748e-06
0.000441786
0.000208804
0.000340338
0.000426161
0.000555771
0.000615037
0.000521359
0.000371631
0.0005702
0.0010187
0.000658243
0.00109554
0.00818354
0.00436688
0.00102441
0.000939285
0.00165037
0.00118756
5.79178e-05
0.00238131
0.00449204
0.00666343
0.00836094
0.00874201
0.00868367
0.00774435
0.0067555
0.00659457
0.00717732
0.00915504
0.0122396
0.0158967
0.00689287
0.00369747
0.000876562
0.000798
0.00164274
0.00110178
1.97865e-05
0.00174919
0.00403752
0.00570881
0.00722447
0.00753823
0.00733245
0.00651634
0.00585053
0.0055762
0.00612202
0.0078567
0.0102384
0.0133498
0.0057793
0.00332423
0.00066499
0.000777055
0.00127734
0.000948493
1.98282e-05
0.00164028
0.00352638
0.00485749
0.00591825
0.00638444
0.00636108
0.00553713
0.00515894
0.00472446
0.00504853
0.00665882
0.0088295
0.0113885
0.00488776
0.00243758
0.00057396
0.000579094
0.00108937
0.000693903
2.55308e-05
0.00121331
0.00272153
0.00402091
0.00491655
0.00530044
0.00502898
0.00442063
0.00395671
0.00378994
0.00419824
0.00522386
0.00716428
0.00929776
0.00367669
0.0021408
0.000434709
0.00027681
0.000718462
0.00074877
7.26447e-05
0.000784844
0.00210821
0.0030901
0.00374915
0.00422351
0.00414252
0.00348414
0.00319074
0.00299771
0.00351121
0.00433556
0.00562221
0.00741499
0.00272586
0.00147534
0.000522033
0.000374072
0.000601138
0.00037624
8.74306e-05
0.000442609
0.00158094
0.00216938
0.00272991
0.00260307
0.00288465
0.0025789
0.00215985
0.0023299
0.00213746
0.00288588
0.00414623
0.00522174
0.00154795
0.0009915
0.000266788
0.000303163
0.000456462
0.000542763
0.000188976
0.000705117
0.000934623
0.00147834
0.00186655
0.00199736
0.00185463
0.001622
0.00131087
0.00120958
0.00148616
0.00189354
0.00253516
0.00333453
0.000487194
0.000219567
3.85795e-05
6.60786e-05
7.5004e-06
0.000101131
3.86979e-05
0.000385875
0.000457741
0.000404329
0.000472743
0.000715252
0.000539726
0.000391517
0.000539477
0.000576977
0.000504314
0.000558161
0.000931395
0.00112411
0.00772089
0.00408747
0.00069089
0.000993302
0.00183598
0.00135862
0.000128212
0.00188953
0.0040319
0.00629173
0.00755036
0.00800229
0.00781545
0.0070471
0.00622648
0.00622152
0.00671752
0.00864614
0.0114566
0.0150215
0.00666465
0.00349409
0.000832441
0.000893059
0.00149361
0.00135197
0.000357906
0.00143787
0.00366673
0.00494459
0.00631672
0.00687448
0.00678796
0.00594673
0.00553726
0.00513198
0.00589569
0.00751624
0.00980143
0.0127708
0.00560413
0.00295568
0.000610613
0.000843839
0.00131242
0.00112769
6.37485e-05
0.00103267
0.00282467
0.00412822
0.00559775
0.00564287
0.00568261
0.0052871
0.004439
0.00443079
0.00483685
0.0062523
0.00859531
0.0109018
0.00483265
0.00250818
0.000471708
0.000529998
0.0012344
0.00115825
0.00032318
0.00112135
0.00232335
0.00363771
0.00438841
0.00491871
0.00467743
0.00412615
0.00378958
0.00341164
0.00399715
0.00521436
0.00682086
0.00857729
0.00371334
0.00210876
0.000546652
0.000387851
0.00081816
0.000643312
0.000383272
0.000715366
0.00186522
0.00286498
0.0033075
0.00375165
0.0034388
0.00331449
0.00297169
0.00291475
0.00313828
0.00415031
0.0053251
0.00678361
0.00277845
0.00172865
0.000390123
0.000526806
0.000680255
0.000691711
8.61044e-05
0.000568719
0.0014466
0.00208211
0.00241239
0.00277718
0.00237394
0.00229041
0.00205775
0.00192036
0.0021532
0.00273866
0.00400535
0.00510666
0.00146978
0.000919786
0.000263755
0.000184272
0.000334377
0.000381097
2.85169e-05
4.23971e-05
0.00077346
0.00158509
0.00173472
0.00156505
0.00149602
0.00135353
0.00123895
0.00126363
0.00120993
0.00201323
0.00234421
0.00294327
0.000511746
0.00028873
0.000204868
0.000160685
0.000213249
3.95483e-05
9.39603e-05
8.30006e-05
0.000257206
0.000461152
0.000613466
0.000526025
0.000364149
0.000611086
0.000216224
0.000258762
0.00055691
0.000570209
0.000970266
0.00108181
0.00648452
0.00313514
0.000247939
0.00161957
0.002428
0.00211184
0.000860167
0.00061882
0.00304343
0.00480099
0.0061458
0.00658815
0.006266
0.00577792
0.00524529
0.00537579
0.00584416
0.00758189
0.0105626
0.0135296
0.00583447
0.00263408
0.000362374
0.00148159
0.00214609
0.00183632
0.000863709
0.000754194
0.00245182
0.00402932
0.00512533
0.00584506
0.00537278
0.00489824
0.00433944
0.00420517
0.00499658
0.00673958
0.00893594
0.0117298
0.00497806
0.00229613
9.31128e-05
0.0015281
0.00166797
0.00186856
0.000579105
0.000586195
0.00199842
0.00343427
0.00440367
0.00475478
0.00480614
0.00391368
0.00351014
0.00373504
0.00409376
0.00536848
0.00728392
0.00994526
0.00419859
0.00208216
6.4442e-05
0.00109325
0.00167252
0.00134739
0.000958181
0.000230898
0.0015944
0.00268457
0.0035858
0.00377434
0.00354922
0.00326469
0.00282334
0.0028073
0.00321813
0.00445415
0.00613202
0.00800077
0.00314117
0.0016451
8.43731e-05
0.00104784
0.00140207
0.0013828
0.000545089
0.00026658
0.0013046
0.00201006
0.00278475
0.0031372
0.00297084
0.00260336
0.00212777
0.00228976
0.00254109
0.00359813
0.00475808
0.00646956
0.00225049
0.000947074
4.00858e-05
0.000539013
0.0010332
0.00088194
0.000515553
0.000280249
0.000967654
0.00135265
0.00173933
0.00234194
0.0021244
0.00183447
0.00165664
0.00155262
0.00187769
0.00242858
0.00347475
0.00457498
0.00143676
0.000653607
3.09761e-05
0.000330003
0.000737146
0.000605362
0.000435207
0.000103778
0.000389333
0.000687586
0.00100203
0.00124401
0.00113734
0.000856485
0.000838585
0.000819951
0.000853821
0.0014628
0.00203262
0.00260622
0.000567451
0.000562123
9.19749e-05
6.37841e-05
0.0001449
9.47239e-05
9.93249e-05
0.00014989
4.78775e-05
0.000325916
0.000244501
0.000513865
0.00026586
0.000426462
0.000305294
0.000167099
0.000342672
0.000635319
0.000745002
0.000958679
0.00533015
0.00202561
0.00086624
0.002398
0.00373862
0.00319967
0.00213929
0.000531832
0.00105898
0.00291979
0.00380013
0.0044058
0.0045042
0.0039017
0.00349988
0.00345459
0.00410049
0.00609594
0.00893327
0.0121367
0.00457112
0.00184659
0.000972398
0.00249335
0.00324422
0.00316069
0.00199101
0.000701142
0.000709563
0.00235866
0.00319259
0.00384395
0.00349744
0.00328022
0.00286905
0.00307253
0.00345149
0.00518476
0.0075891
0.0104417
0.00390502
0.00149427
0.000794346
0.00213443
0.00254862
0.00268758
0.00174295
0.000582429
0.000578854
0.00198844
0.00275072
0.00319396
0.00327752
0.00265591
0.00236034
0.00245613
0.00291547
0.00426235
0.00627215
0.00841967
0.00332818
0.00134747
0.000455875
0.00157009
0.00224207
0.0023601
0.0015518
0.000682689
0.000618954
0.00153301
0.00212522
0.00266402
0.00256034
0.0022372
0.00186304
0.00181713
0.0025088
0.00352187
0.00522863
0.00721717
0.00246165
0.00106829
0.000504583
0.00132574
0.0018468
0.00170634
0.00133505
0.000541215
0.000134456
0.00115277
0.0017566
0.00174157
0.00195439
0.00159958
0.00150466
0.00143471
0.00165883
0.00257525
0.00411745
0.00547704
0.00200921
0.000754408
0.000627887
0.00113844
0.00135868
0.00120794
0.000691834
0.000509519
0.000373633
0.000680963
0.00143427
0.00132941
0.00136204
0.00102063
0.00127031
0.000868204
0.00126966
0.00192196
0.00299944
0.00402157
0.00133167
0.000598651
0.000124619
0.000937644
0.000857623
0.00102047
0.000798427
0.000118381
0.000149756
0.000465725
0.000901329
0.00118923
0.000965905
0.000847851
0.000314298
0.000281345
0.000698383
0.00108892
0.00190064
0.00219646
0.000504377
0.000274574
4.09633e-05
0.000263048
0.000230413
0.000149388
0.000394837
2.51079e-05
1.27022e-05
0.000245131
9.88681e-05
0.000318153
0.000404417
0.000507546
0.000261823
0.000126371
9.26999e-05
0.000469619
0.000740183
0.000634933
0.00353232
0.000530567
0.00233778
0.00420121
0.0050493
0.00488885
0.00421784
0.00283957
0.00118679
0.000206749
0.00135287
0.00172447
0.00180916
0.00151941
0.00148892
0.00160142
0.0024417
0.00410507
0.00676712
0.00965511
0.00317833
0.000314225
0.00215625
0.00380836
0.00454941
0.00426898
0.00372213
0.00261366
0.0013361
2.89439e-05
0.00101445
0.00172135
0.00127463
0.000990591
0.00113068
0.00110379
0.00189877
0.00354932
0.00575588
0.008372
0.00233805
0.000285637
0.0020665
0.00325173
0.00383634
0.00382221
0.00334741
0.00226731
0.00124559
0.000140863
0.000674591
0.00111015
0.00113347
0.00081361
0.000623226
0.000797041
0.00135898
0.0028076
0.00481631
0.00712687
0.00217065
0.00012153
0.00150324
0.00275671
0.00360424
0.00314137
0.00264678
0.00205985
0.00106216
0.000170595
0.000459496
0.000891049
0.000743241
0.00074682
0.000648632
0.000569186
0.00095509
0.00214352
0.00399988
0.00542679
0.00156057
0.000128935
0.00128663
0.00208521
0.00266431
0.00284817
0.00240289
0.00151798
0.000848423
0.000169316
0.000327396
0.000518999
0.000526344
0.000508948
0.000122627
0.000405108
0.000359417
0.00161055
0.00288936
0.00444654
0.00121399
0.000183443
0.000766011
0.00162209
0.00192357
0.00192857
0.00183341
0.00110906
0.000642788
6.46588e-05
0.000136179
0.000469259
0.000458729
0.000249604
0.000173255
2.17015e-06
0.000742014
0.00119056
0.00202867
0.00350399
0.000675643
1.97733e-05
0.000695205
0.000916814
0.00140747
0.000940162
0.00119958
0.00074972
0.000204581
0.000152894
0.000263702
0.000298208
0.000493443
0.000140807
9.28226e-05
0.000192826
0.000206014
0.000843627
0.00152348
0.00188152
0.000390124
1.16231e-05
0.000151712
0.000443545
0.000204295
0.000385103
0.000315902
2.11955e-05
7.1249e-05
0.00023555
4.33152e-05
2.05339e-05
1.20186e-05
8.4453e-05
8.88497e-05
0.000110096
0.00058514
0.000351687
0.000485055
0.000750259
0.00150437
0.00173963
0.0044905
0.00629438
0.00731204
0.00714782
0.0062963
0.00527505
0.00401036
0.00260241
0.00175834
0.00131393
0.00122726
0.00143028
0.00139133
0.00125573
2.52528e-05
0.00153592
0.00431278
0.00728984
0.000971499
0.00151966
0.00422535
0.00566954
0.00631738
0.00657589
0.00569145
0.00475673
0.00372656
0.0026702
0.00182575
0.00150493
0.00130497
0.00167343
0.00130336
0.0011442
0.000547517
0.00119466
0.00362633
0.00597387
0.000869432
0.00135927
0.00349147
0.00493588
0.00564315
0.00569747
0.00493799
0.00415196
0.00304903
0.0023828
0.00161192
0.00130288
0.00133861
0.00135433
0.00157125
0.00128172
0.00027125
0.000861227
0.00295905
0.00508111
0.000737353
0.00114124
0.002788
0.00408282
0.00463224
0.00484192
0.00425665
0.00360912
0.00285342
0.00212583
0.0014896
0.00111895
0.00121977
0.00125436
0.00135242
0.00110393
0.000557395
0.000778312
0.00225955
0.00412217
0.000459775
0.00112203
0.00235005
0.00337416
0.0037757
0.00368137
0.00351368
0.00282225
0.00244229
0.00171344
0.0013123
0.00102495
0.00110224
0.00109099
0.00104207
0.000964968
0.000687967
0.000384967
0.00161959
0.00303288
0.000224718
0.000677091
0.00189754
0.00238134
0.00283411
0.00279323
0.00255097
0.00212882
0.00170887
0.000971347
0.00103777
0.000589706
0.000776748
0.00066912
0.000704735
0.000593917
0.000166284
9.90973e-05
0.0011677
0.00238559
0.000387485
0.000463099
0.000932719
0.00127834
0.00161308
0.00165117
0.00161551
0.00144893
0.00105404
0.000792662
0.000632487
0.000466755
0.00076818
0.000452875
0.000626542
0.000725145
0.000361802
0.000190002
0.000460428
0.00135224
0.000117753
4.97022e-05
0.000313859
0.000468745
0.00042731
0.000586001
0.000465104
0.000568753
0.000484266
0.00031233
0.000343454
3.87926e-05
0.000287253
0.000309145
0.00030994
0.000173524
0.000202442
0.000125549
0.000478583
0.00050256
0.0011904
0.00418642
0.00678823
0.00853956
0.00980145
0.00964017
0.00924384
0.00820694
0.00726851
0.00606393
0.00540429
0.00465441
0.00474621
0.00463851
0.00451605
0.00407193
0.0028365
0.00132075
0.00144835
0.00442973
0.00118378
0.0037411
0.00612007
0.00800371
0.00851115
0.00861758
0.00829662
0.00731949
0.00654342
0.00557542
0.0048235
0.00441613
0.00439244
0.00438402
0.00433937
0.00391518
0.00302261
0.001617
0.00107479
0.00372391
0.00121369
0.0030788
0.00520297
0.00683214