/*--------------------------------*- C++ -*----------------------------------*\
| =========                 |                                                 |
| \\      /  F ield         | OpenFOAM: The Open Source CFD Toolbox           |
|  \\    /   O peration     | Version:  2212                                  |
|   \\  /    A nd           | Website:  www.openfoam.com                      |
|    \\/     M anipulation  |                                                 |
\*---------------------------------------------------------------------------*/
FoamFile
{
    version     2.0;
    format      ascii;
    arch        "LSB;label=32;scalar=64";
    class       volScalarField;
    location    "0";
    object      stateMean;
}
// * * * * * * * * * * * * * * * * * * * * * * * * * * * * * * * * * * * * * //

dimensions      [0 0 0 1 0 0 0];

internalField   nonuniform List<scalar> 
3200
(
349.877
348.579
347.723
347.595
347.912
348.774
349.668
350.613
351.551
352.097
352.362
352.497
352.18
351.594
351.001
350.484
350.143
350.416
351.246
352.599
343.188
342.01
341.32
341.167
341.539
342.275
342.978
343.868
344.604
345.115
345.428
345.495
345.198
344.779
344.154
343.659
343.402
343.554
344.405
345.409
336.463
335.536
335.021
334.896
335.162
335.734
336.417
337.101
337.709
338.222
338.437
338.403
338.153
337.822
337.321
336.913
336.721
336.834
337.5
338.3
329.749
329.074
328.62
328.492
328.76
329.275
329.867
330.358
330.793
331.213
331.449
331.42
331.216
330.911
330.481
330.211
330.042
330.09
330.598
331.325
323.157
322.682
322.284
322.278
322.314
322.674
323.188
323.577
323.955
324.28
324.453
324.395
324.295
324.059
323.778
323.441
323.276
323.349
323.76
324.318
316.545
316.204
315.938
315.869
315.976
316.249
316.56
316.947
317.136
317.389
317.474
317.454
317.394
317.181
317.015
316.709
316.703
316.795
316.997
317.368
309.876
309.746
309.518
309.528
309.663
309.717
309.882
310.157
310.304
310.403
310.435
310.449
310.5
310.332
310.169
310.092
309.989
310.066
310.209
310.368
303.282
303.227
303.316
303.175
303.198
303.228
303.269
303.396
303.512
303.533
303.483
303.539
303.484
303.467
303.38
303.388
303.306
303.45
303.456
303.528
349.891
348.727
347.863
347.865
348.212
349.001
350.069
351.058
352.005
352.723
353.021
352.968
352.724
352.12
351.408
350.81
350.377
350.608
351.43
352.724
343.261
342.243
341.476
341.344
341.803
342.531
343.329
344.232
345.06
345.565
345.89
345.896
345.655
345.099
344.488
343.958
343.633
343.817
344.512
345.485
336.535
335.705
335.188
335.06
335.404
335.941
336.677
337.476
338.103
338.543
338.912
338.748
338.513
338.137
337.56
337.161
336.931
337.05
337.567
338.482
329.87
329.223
328.717
328.734
328.967
329.441
329.978
330.635
331.135
331.532
331.791
331.732
331.491
331.112
330.766
330.351
330.17
330.297
330.782
331.392
323.199
322.739
322.418
322.215
322.481
322.856
323.34
323.869
324.146
324.494
324.681
324.728
324.477
324.188
323.857
323.538
323.473
323.437
323.917
324.449
316.615
316.25
315.968
315.997
316.062
316.373
316.733
317.02
317.268
317.509
317.567
317.63
317.529
317.311
317.081
316.85
316.821
316.781
317.033
317.393
309.983
309.826
309.621
309.588
309.644
309.793
310.026
310.188
310.318
310.431
310.588
310.538
310.515
310.368
310.224
310.108
310.102
310.131
310.278
310.449
303.312
303.255
303.185
303.255
303.247
303.322
303.375
303.393
303.474
303.475
303.576
303.543
303.507
303.477
303.431
303.395
303.393
303.432
303.484
303.479
350.303
349.04
348.333
348.234
348.68
349.617
350.705
351.877
352.76
353.567
353.887
353.951
353.517
352.879
352.121
351.422
350.967
351.161
351.82
353.119
343.481
342.509
341.938
341.772
342.185
342.969
343.893
344.935
345.766
346.293
346.665
346.623
346.273
345.738
345.064
344.546
344.123
344.186
344.898
345.877
336.862
336.021
335.417
335.326
335.728
336.342
337.196
337.953
338.625
339.159
339.369
339.39
339.138
338.644
338.082
337.581
337.303
337.377
338.041
338.71
330.095
329.428
328.979
328.934
329.243
329.718
330.469
330.956
331.559
332.052
332.3
332.233
331.947
331.626
331.191
330.687
330.46
330.538
331.01
331.653
323.448
322.882
322.574
322.516
322.74
323.178
323.632
324.096
324.577
324.835
325.072
325.129
324.883
324.558
324.23
323.876
323.74
323.707
324.059
324.615
316.719
316.339
316.123
316.152
316.237
316.556
316.871
317.228
317.546
317.772
317.927
317.899
317.761
317.504
317.381
317.043
316.815
317.011
317.223
317.573
309.986
309.864
309.697
309.72
309.835
309.955
310.145
310.298
310.581
310.678
310.756
310.761
310.728
310.569
310.41
310.228
310.191
310.129
310.29
310.536
303.349
303.326
303.276
303.198
303.329
303.327
303.32
303.508
303.57
303.586
303.57
303.649
303.638
303.527
303.417
303.408
303.392
303.409
303.515
303.517
350.809
349.683
349.052
348.966
349.55
350.442
351.612
352.723
353.735
354.541
355.02
354.948
354.579
353.849
353.08
352.327
351.832
351.787
352.56
353.779
344.106
343.153
342.406
342.408
342.95
343.667
344.669
345.677
346.514
347.202
347.647
347.558
347.228
346.671
345.881
345.256
344.785
344.899
345.525
346.497
337.319
336.5
335.967
335.889
336.387
336.956
337.736
338.602
339.331
339.943
340.183
340.235
339.942
339.418
338.833
338.251
337.936
337.914
338.366
339.171
330.441
329.77
329.422
329.321
329.608
330.255
330.92
331.684
332.165
332.712
332.9
332.89
332.636
332.202
331.754
331.261
331.011
331.011
331.391
331.998
323.681
323.199
322.898
322.885
323.147
323.494
323.99
324.544
324.997
325.372
325.631
325.576
325.359
325.049
324.62
324.305
324.121
324.133
324.431
324.823
316.913
316.606
316.336
316.331
316.467
316.85
317.226
317.57
317.879
318.173
318.231
318.266
318.077
317.876
317.662
317.349
317.195
317.301
317.439
317.783
310.161
309.919
309.885
309.877
309.953
310.055
310.264
310.515
310.705
310.931
310.897
311.03
310.812
310.783
310.64
310.393
310.37
310.412
310.484
310.664
303.408
303.242
303.279
303.287
303.361
303.404
303.446
303.448
303.548
303.656
303.696
303.742
303.649
303.613
303.533
303.414
303.413
303.486
303.533
303.611
351.774
350.602
349.906
349.93
350.442
351.523
352.602
353.846
355.077
355.791
356.315
356.253
355.842
355.141
354.195
353.473
352.926
352.91
353.551
354.626
344.838
343.955
343.283
343.328
343.79
344.568
345.587
346.647
347.599
348.316
348.786
348.624
348.314
347.633
346.872
346.146
345.767
345.774
346.362
347.259
337.904
337.122
336.64
336.622
337.048
337.64
338.555
339.406
340.293
340.852
341.178
341.159
340.809
340.26
339.645
339.044
338.728
338.759
339.104
339.807
330.997
330.427
329.995
329.97
330.272
330.819
331.517
332.276
332.885
333.464
333.676
333.688
333.253
332.998
332.394
331.917
331.599
331.621
332.037
332.565
324.096
323.556
323.386
323.312
323.642
324.015
324.53
325.014
325.598
325.983
326.141
326.114
326.018
325.588
325.176
324.849
324.582
324.629
324.805
325.317
317.282
316.924
316.669
316.652
316.796
317.105
317.463
317.931
318.218
318.591
318.636
318.663
318.538
318.29
318.018
317.708
317.581
317.576
317.774
318.068
310.382
310.148
310
310.071
310.098
310.298
310.511
310.788
310.96
311.09
311.239
311.185
311.063
310.951
310.756
310.639
310.565
310.512
310.723
310.754
303.496
303.486
303.388
303.374
303.394
303.453
303.556
303.639
303.692
303.715
303.861
303.794
303.736
303.68
303.649
303.592
303.527
303.456
303.576
303.536
352.832
351.768
351.116
351.077
351.687
352.618
353.812
355.078
356.252
357.201
357.726
357.716
357.155
356.363
355.609
354.647
354.146
354.106
354.769
355.777
345.786
344.877
344.269
344.335
344.788
345.593
346.673
347.737
348.701
349.51
349.913
349.91
349.575
348.863
347.944
347.341
346.85
346.791
347.295
348.217
338.777
338.028
337.502
337.521
337.92
338.582
339.366
340.369
341.184
341.837
342.181
342.178
341.844
341.259
340.613
339.972
339.606
339.546
339.962
340.7
331.647
331.031
330.623
330.731
331.005
331.587
332.306
332.965
333.714
334.154
334.395
334.491
334.229
333.723
333.177
332.673
332.352
332.343
332.714
333.274
324.615
324.227
323.92
323.828
324.127
324.528
325.067
325.622
326.177
326.592
326.81
326.765
326.522
326.187
325.797
325.42
325.135
325.134
325.434
325.78
317.591
317.231
317.067
317.128
317.215
317.525
318.044
318.314
318.655
318.933
319.117
319.224
318.954
318.675
318.471
318.122
318.029
317.973
318.067
318.392
310.505
310.394
310.251
310.309
310.293
310.513
310.72
310.996
311.179
311.364
311.532
311.506
311.424
311.257
311.062
310.856
310.782
310.749
310.956
311.042
303.537
303.494
303.455
303.45
303.494
303.517
303.608
303.77
303.702
303.833
303.788
303.841
303.818
303.756
303.649
303.648
303.586
303.601
303.68
303.73
354.154
353.087
352.485
352.396
352.983
353.931
355.149
356.41
357.627
358.563
359.152
359.134
358.687
357.814
356.925
356.081
355.582
355.511
356.115
357.033
346.867
346.044
345.489
345.509
345.846
346.684
347.774
348.821
349.885
350.766
351.167
351.186
350.731
349.967
349.26
348.545
348.019
348.055
348.534
349.311
339.602
338.958
338.488
338.534
338.837
339.579
340.4
341.287
342.162
342.879
343.254
343.238
342.832
342.193
341.599
341.098
340.618
340.637
340.958
341.655
332.399
331.859
331.494
331.429
331.786
332.33
333.037
333.745
334.498
334.983
335.345
335.351
335.087
334.627
333.915
333.49
333.169
333.182
333.508
334.029
325.201
324.773
324.52
324.492
324.756
325.155
325.755
326.252
326.811
327.207
327.44
327.415
327.202
326.753
326.477
326.052
325.713
325.752
326.001
326.387
317.909
317.768
317.571
317.459
317.718
317.882
318.358
318.759
319.174
319.468
319.694
319.657
319.529
319.192
318.85
318.631
318.397
318.429
318.578
318.883
310.831
310.66
310.45
310.48
310.576
310.81
311.008
311.291
311.485
311.725
311.815
311.722
311.687
311.521
311.313
311.118
311.078
311.058
311.247
311.343
303.617
303.579
303.652
303.478
303.575
303.585
303.743
303.779
303.889
303.961
303.974
303.849
303.97
303.828
303.798
303.726
303.712
303.647
303.793
303.75
355.467
354.59
353.963
353.896
354.463
355.455
356.569
357.79
359.052
360.097
360.64
360.659
360.152
359.299
358.309
357.499
357.036
356.935
357.516
358.536
348.046
347.305
346.762
346.717
347.158
347.89
349.012
350.112
351.041
351.974
352.437
352.429
352.083
351.28
350.494
349.795
349.339
349.384
349.7
350.432
340.604
339.979
339.613
339.548
339.877
340.586
341.412
342.357
343.206
343.934
344.398
344.392
343.921
343.289
342.619
342.025
341.728
341.649
342.092
342.551
333.304
332.71
332.321
332.389
332.609
333.216
333.903
334.647
335.331
335.922
336.205
336.252
335.831
335.473
334.849
334.352
334.105
334.031
334.477
334.807
325.911
325.561
325.151
325.165
325.335
325.76
326.296
326.905
327.473
327.889
328.227
328.155
327.933
327.562
327.069
326.67
326.488
326.529
326.735
327.099
318.47
318.206
317.999
317.927
318.131
318.462
318.8
319.305
319.661
319.919
320.013
320.095
319.943
319.668
319.337
319.072
318.919
318.953
319.084
319.273
311.188
310.863
310.758
310.768
310.882
311.13
311.28
311.524
311.802
311.958
312.033
312.154
312.007
311.829
311.569
311.518
311.326
311.384
311.406
311.583
303.76
303.664
303.62
303.715
303.672
303.703
303.824
303.866
303.974
304.043
304.05
304.102
304.082
303.921
303.895
303.831
303.826
303.717
303.814
303.893
357.109
356.136
355.626
355.467
355.92
356.868
357.992
359.262
360.374
361.537
362.011
362.105
361.57
360.747
359.922
359.042
358.645
358.575
359.085
359.947
349.44
348.624
348.159
348.148
348.408
349.293
350.224
351.275
352.318
353.243
353.634
353.715
353.291
352.519
351.819
351.044
350.654
350.66
351.083
351.778
341.714
341.067
340.757
340.699
340.984
341.651
342.482
343.317
344.31
344.987
345.349
345.371
344.997
344.449
343.752
343.22
342.743
342.805
343.179
343.735
334.173
333.687
333.347
333.296
333.534
334.047
334.752
335.41
336.216
336.687
337.086
337.103
336.78
336.219
335.715
335.173
334.982
334.934
335.274
335.66
326.494
326.188
325.934
325.893
326.063
326.425
327.043
327.614
328.102
328.577
328.811
328.733
328.656
328.25
327.711
327.385
327.213
327.143
327.42
327.721
319.011
318.727
318.562
318.492
318.63
318.931
319.279
319.679
320.086
320.382
320.608
320.585
320.476
320.121
319.887
319.617
319.497
319.389
319.599
319.841
311.359
311.19
311.08
311.159
311.179
311.273
311.575
311.869
312.021
312.229
312.377
312.331
312.309
312.072
311.889
311.729
311.658
311.709
311.792
311.921
303.877
303.788
303.727
303.746
303.801
303.793
303.889
303.959
304.094
304.108
304.101
304.107
304.142
304.03
303.975
303.951
303.914
303.892
303.9
303.945
358.615
357.768
357.135
357.125
357.529
358.362
359.458
360.592
361.833
362.876
363.465
363.437
363.012
362.194
361.337
360.533
360.085
360.036
360.606
361.431
350.789
350.057
349.487
349.469
349.793
350.421
351.52
352.507
353.551
354.394
354.896
354.958
354.506
353.821
353.095
352.418
352.033
352.011
352.426
353.127
342.87
342.358
341.927
341.823
342.168
342.746
343.495
344.328
345.295
346.012
346.467
346.344
346.001
345.477
344.763
344.222
343.988
343.987
344.237
344.844
335.064
334.649
334.221
334.222
334.493
334.921
335.613
336.338
337.032
337.542
337.858
337.895
337.61
337.274
336.753
336.184
335.844
335.944
336.139
336.591
327.275
326.943
326.642
326.564
326.782
327.116
327.67
328.286
328.796
329.235
329.481
329.452
329.287
328.878
328.491
328.177
327.86
327.886
328.142
328.334
319.489
319.255
319.1
319.017
319.08
319.398
319.757
320.114
320.538
320.92
321.041
321.007
320.835
320.629
320.367
320.097
320.018
319.873
320.076
320.273
311.625
311.591
311.45
311.362
311.453
311.686
311.881
312.107
312.372
312.531
312.67
312.642
312.552
312.411
312.157
312.093
312.03
311.954
312.065
312.124
303.873
303.898
303.85
303.867
303.821
303.867
303.95
304.026
304.18
304.121
304.161
304.176
304.192
304.179
304.111
304.023
304.038
304.129
303.977
304.079
360.326
359.443
358.842
358.764
359.129
359.885
360.86
362.131
363.203
364.149
364.763
364.74
364.408
363.633
362.747
362.095
361.678
361.757
362.26
363.083
352.162
351.451
350.976
350.932
351.173
351.874
352.711
353.71
354.785
355.515
356.051
356.022
355.681
355.016
354.323
353.712
353.362
353.424
353.741
354.42
344.078
343.575
343.098
343.061
343.346
343.891
344.61
345.485
346.361
346.938
347.304
347.348
347.113
346.511
345.993
345.409
345.061
345.153
345.461
345.997
336.087
335.538
335.267
335.256
335.457
335.944
336.483
337.16
337.852
338.386
338.688
338.721
338.445
337.98
337.507
337.096
336.858
336.825
337.12
337.562
328.004
327.71
327.426
327.484
327.63
327.895
328.41
328.845
329.424
329.821
330.038
330.119
329.948
329.53
329.188
328.849
328.725
328.703
328.849
329.225
320.024
319.772
319.663
319.584
319.719
319.988
320.311
320.569
321.036
321.278
321.458
321.363
321.351
321.109
320.799
320.656
320.387
320.418
320.625
320.821
311.987
311.902
311.793
311.74
311.817
311.908
312.242
312.489
312.623
312.824
312.945
312.955
312.848
312.689
312.486
312.336
312.298
312.3
312.383
312.544
304.005
303.953
303.937
303.947
304.007
304.017
304.072
304.23
304.272
304.267
304.288
304.351
304.277
304.203
304.212
304.184
304.12
304.095
304.169
304.199
362.016
361.159
360.489
360.46
360.724
361.434
362.45
363.48
364.535
365.5
365.957
365.976
365.629
364.958
364.18
363.636
363.242
363.355
363.81
364.638
353.686
352.951
352.491
352.383
352.665
353.181
353.946
354.921
355.951
356.53
357.017
357.089
356.817
356.179
355.617
355.006
354.777
354.845
355.169
355.831
345.373
344.777
344.372
344.294
344.55
345.008
345.726
346.391
347.215
347.773
348.282
348.191
348
347.576
346.931
346.532
346.252
346.314
346.716
347.192
337.174
336.646
336.29
336.299
336.404
336.752
337.32
338.042
338.614
339.144
339.398
339.491
339.242
338.821
338.42
337.969
337.822
337.884
338.094
338.43
328.875
328.542
328.284
328.247
328.371
328.679
328.988
329.532
330.039
330.437
330.583
330.661
330.428
330.205
329.868
329.598
329.405
329.467
329.597
329.881
320.653
320.454
320.207
320.105
320.247
320.422
320.775
321.116
321.49
321.743
321.849
321.918
321.695
321.538
321.304
321.08
320.964
320.959
321.182
321.398
312.33
312.24
312.144
312.119
312.188
312.28
312.504
312.586
312.871
313.153
313.199
313.118
313.041
312.918
312.786
312.687
312.555
312.69
312.684
312.79
304.136
304.095
304.105
304.033
304.055
304.168
304.217
304.24
304.311
304.383
304.43
304.393
304.326
304.374
304.222
304.199
304.251
304.216
304.302
304.309
363.612
362.817
362.282
362.135
362.362
362.964
363.851
364.742
365.875
366.646
367.137
367.168
366.8
366.268
365.64
365.197
364.842
364.938
365.503
366.157
355.158
354.379
354.015
353.822
354.038
354.57
355.29
356.169
356.99
357.664
358.055
358.199
357.813
357.339
356.763
356.291
356.118
356.272
356.606
357.24
346.646
346.013
345.622
345.449
345.783
346.071
346.835
347.498
348.17
348.765
349.102
349.128
348.963
348.394
347.936
347.655
347.394
347.445
347.735
348.359
338.177
337.699
337.321
337.248
337.365
337.767
338.158
338.771
339.382
339.83
340.135
340.121
339.895
339.587
339.178
338.879
338.703
338.801
339.063
339.457
329.631
329.319
329.041
328.915
329.041
329.276
329.753
330.185
330.644
330.938
331.194
331.249
331.078
330.792
330.434
330.257
330.097
330.197
330.342
330.725
321.158
320.868
320.717
320.734
320.749
320.961
321.222
321.596
321.899
322.066
322.19
322.341
322.189
321.978
321.776
321.58
321.51
321.509
321.678
321.903
312.724
312.555
312.441
312.454
312.432
312.571
312.71
312.885
313.089
313.207
313.306
313.356
313.273
313.114
313.022
312.918
312.824
312.908
312.986
313.089
304.288
304.311
304.146
304.19
304.2
304.248
304.336
304.376
304.361
304.454
304.429
304.502
304.411
304.436
304.37
304.295
304.313
304.367
304.367
304.407
365.417
364.6
364.015
363.942
363.926
364.564
365.341
366.245
367.05
367.848
368.171
368.277
368.091
367.553
367.014
366.554
366.313
366.552
367.113
367.891
356.634
355.991
355.393
355.272
355.414
355.827
356.582
357.315
358.013
358.703
359.001
359.134
358.817
358.465
357.979
357.667
357.389
357.583
358.032
358.718
347.899
347.332
346.879
346.769
346.972
347.248
347.863
348.498
349.067
349.643
349.909
349.979
349.844
349.396
349.006
348.713
348.524
348.635
348.989
349.464
339.209
338.756
338.424
338.337
338.394
338.619
339.127
339.612
340.187
340.567
340.769
340.883
340.714
340.414
340.052
339.77
339.719
339.77
340.069
340.524
330.437
330.144
329.84
329.796
329.845
330.098
330.402
330.813
331.141
331.531
331.731
331.673
331.639
331.373
331.16
330.929
330.782
330.857
331.15
331.431
321.815
321.529
321.239
321.236
321.324
321.52
321.816
321.98
322.339
322.476
322.719
322.647
322.583
322.368
322.318
322.04
322.01
322.059
322.251
322.462
313.131
312.972
312.839
312.682
312.802
312.839
312.987
313.263
313.392
313.514
313.65
313.718
313.603
313.503
313.257
313.158
313.194
313.219
313.379
313.402
304.415
304.37
304.329
304.269
304.311
304.366
304.317
304.45
304.469
304.556
304.511
304.57
304.581
304.592
304.491
304.419
304.377
304.46
304.511
304.455
367.165
366.421
365.8
365.558
365.676
366.133
366.729
367.518
368.326
368.943
369.366
369.4
369.232
368.842
368.48
368.121
367.996
368.162
368.705
369.406
358.216
357.492
356.98
356.771
356.878
357.324
357.823
358.466
359.098
359.677
360.032
360.197
359.863
359.516
359.262
358.905
358.815
359.021
359.437
360.07
349.109
348.642
348.134
348.045
348.156
348.454
348.876
349.461
349.965
350.526
350.713
350.79
350.652
350.333
350.009
349.776
349.655
349.834
350.221
350.777
340.25
339.754
339.457
339.296
339.266
339.663
340.042
340.41
340.871
341.237
341.452
341.537
341.367
341.199
340.954
340.687
340.559
340.697
341.072
341.355
331.252
330.932
330.661
330.603
330.613
330.738
331.049
331.475
331.789
332.064
332.229
332.243
332.154
332.015
331.724
331.63
331.413
331.62
331.845
332.207
322.354
322.13
321.965
321.837
321.884
322.015
322.163
322.491
322.707
322.929
322.994
323.067
322.997
322.836
322.693
322.505
322.599
322.596
322.724
323.091
313.403
313.262
313.123
313.142
313.075
313.301
313.291
313.488
313.699
313.736
313.867
313.857
313.878
313.711
313.625
313.576
313.494
313.605
313.733
313.78
304.541
304.447
304.426
304.366
304.468
304.44
304.485
304.606
304.635
304.548
304.633
304.607
304.596
304.607
304.584
304.564
304.679
304.579
304.591
304.65
368.994
368.124
367.502
367.238
367.25
367.669
368.297
368.928
369.573
370.187
370.5
370.573
370.429
370.101
369.801
369.49
369.555
369.727
370.356
371.126
359.649
359.029
358.394
358.222
358.327
358.545
359.135
359.691
360.217
360.677
360.983
361.02
360.938
360.587
360.448
360.192
360.068
360.345
360.879
361.446
350.472
349.92
349.458
349.247
349.284
349.528
350.025
350.487
351.005
351.306
351.577
351.619
351.477
351.286
350.979
350.816
350.884
350.984
351.433
351.947
341.294
340.837
340.508
340.307
340.354
340.498
340.887
341.26
341.625
341.93
342.148
342.22
342.078
341.915
341.692
341.561
341.512
341.726
341.997
342.449
332.077
331.692
331.465
331.313
331.362
331.562
331.764
332.112
332.321
332.607
332.741
332.794
332.685
332.571
332.44
332.297
332.206
332.374
332.603
332.931
322.883
322.691
322.426
322.404
322.389
322.523
322.706
322.926
323.122
323.391
323.369
323.484
323.364
323.315
323.198
323.113
323.12
323.071
323.287
323.58
313.822
313.615
313.544
313.517
313.49
313.55
313.626
313.728
313.888
313.988
314.038
314.072
313.942
313.991
313.872
313.769
313.804
313.897
313.904
314.124
304.628
304.627
304.542
304.522
304.562
304.537
304.595
304.581
304.618
304.677
304.667
304.754
304.666
304.643
304.622
304.639
304.603
304.676
304.758
304.745
370.712
369.898
369.289
369.004
368.885
369.268
369.696
370.307
370.815
371.345
371.592
371.791
371.599
371.414
371.178
371.019
371.126
371.322
371.991
372.798
361.213
360.54
359.988
359.622
359.744
359.985
360.345
360.895
361.314
361.736
362.009
362.088
361.959
361.767
361.538
361.411
361.428
361.619
362.283
362.988
351.714
351.265
350.778
350.472
350.469
350.65
351.067
351.437
351.823
352.177
352.467
352.449
352.479
352.164
352.053
351.896
351.914
352.093
352.577
353.089
342.301
341.91
341.45
341.311
341.324
341.493
341.767
342.145
342.428
342.716
342.85
342.948
342.836
342.683
342.523
342.395
342.381
342.586
342.978
343.444
332.892
332.549
332.319
332.111
332.177
332.233
332.437
332.699
333.043
333.184
333.251
333.353
333.301
333.161
333.092
332.944
332.989
333.04
333.324
333.736
323.457
323.346
323.053
322.982
322.905
322.987
323.156
323.373
323.543
323.735
323.806
323.803
323.742
323.727
323.59
323.543
323.633
323.654
323.855
324.057
314.141
313.984
313.869
313.753
313.781
313.854
313.918
314.051
314.123
314.186
314.235
314.296
314.265
314.176
314.043
314.113
314.168
314.127
314.341
314.406
304.643
304.717
304.652
304.664
304.685
304.635
304.721
304.702
304.743
304.726
304.759
304.745
304.756
304.771
304.755
304.768
304.668
304.772
304.851
304.878
372.512
371.627
371
370.648
370.607
370.825
371.077
371.558
372.162
372.494
372.739
372.846
372.798
372.733
372.61
372.522
372.563
372.892
373.618
374.467
362.691
362.007
361.562
361.135
361.101
361.212
361.579
362.002
362.493
362.769
363.014
363.175
363.021
362.928
362.673
362.696
362.741
363.007
363.688
364.37
352.988
352.478
351.993
351.729
351.624
351.843
352.085
352.428
352.73
353.147
353.256
353.295
353.303
353.158
352.988
352.973
353.043
353.278
353.704
354.319
343.268
342.838
342.522
342.253
342.331
342.371
342.605
342.84
343.119
343.385
343.587
343.531
343.563
343.4
343.235
343.244
343.284
343.511
343.902
344.433
333.649
333.354
333.035
332.882
332.882
332.908
333.11
333.296
333.558
333.817
333.82
333.846
333.84
333.707
333.7
333.623
333.7
333.843
334.138
334.466
324.116
323.846
323.613
323.41
323.465
323.515
323.659
323.885
323.896
324.111
324.188
324.22
324.192
324.056
324.043
323.985
324.027
324.086
324.395
324.656
314.48
314.327
314.114
314.105
314.025
314.087
314.18
314.29
314.436
314.418
314.499
314.583
314.469
314.471
314.46
314.458
314.508
314.523
314.614
314.762
304.865
304.778
304.666
304.734
304.736
304.702
304.804
304.741
304.793
304.882
304.869
304.86
304.895
304.887
304.851
304.805
304.826
304.819
304.906
304.927
374.051
373.304
372.529
372.159
372.06
372.187
372.486
372.833
373.33
373.634
373.893
374.083
374.035
373.847
373.783
373.739
374.011
374.4
375.153
376.013
364.099
363.425
362.813
362.536
362.435
362.467
362.762
363.099
363.471
363.731
363.971
363.994
364.055
363.967
363.786
363.755
363.98
364.308
364.91
365.603
354.104
353.585
353.109
352.815
352.724
352.81
353.078
353.283
353.672
353.832
354.078
354.113
354.143
353.989
353.899
353.875
353.916
354.311
354.791
355.373
344.235
343.854
343.391
343.215
343.146
343.204
343.375
343.531
343.827
344.007
344.201
344.219
344.204
344.108
344.083
344.046
344.112
344.403
344.778
345.202
334.421
334.039
333.769
333.51
333.483
333.542
333.708
333.902
334.07
334.25
334.363
334.32
334.311
334.302
334.304
334.204
334.277
334.467
334.777
335.083
324.525
324.246
324.104
324.004
323.956
324.031
324.047
324.205
324.339
324.486
324.497
324.582
324.551
324.512
324.466
324.424
324.46
324.622
324.867
325.046
314.768
314.556
314.481
314.453
314.306
314.315
314.455
314.532
314.553
314.686
314.761
314.685
314.659
314.624
314.616
314.739
314.682
314.762
314.913
315.032
304.902
304.859
304.843
304.864
304.775
304.815
304.814
304.833
304.858
304.916
304.971
304.888
304.939
304.943
304.906
304.99
304.939
304.92
304.94
305.055
375.268
374.479
373.846
373.303
373.209
373.309
373.639
373.906
374.21
374.504
374.827
374.895
374.86
374.867
374.793
374.864
375.017
375.46
376.228
377.13
365.115
364.395
363.75
363.485
363.323
363.466
363.622
363.832
364.204
364.506
364.654
364.708
364.745
364.682
364.678
364.704
364.838
365.279
365.803
366.507
354.938
354.369
353.918
353.569
353.459
353.615
353.726
353.975
354.254
354.442
354.579
354.619
354.687
354.644
354.508
354.537
354.715
355.094
355.615
356.132
344.944
344.503
344.023
343.772
343.643
343.786
343.891
344.088
344.265
344.502
344.677
344.611
344.631
344.552
344.552
344.554
344.721
344.902
345.315
345.84
334.9
334.551
334.267
334.053
333.977
334.02
334.151
334.219
334.45
334.559
334.662
334.671
334.635
334.671
334.614
334.7
334.744
334.867
335.244
335.578
324.897
324.692
324.432
324.254
324.227
324.24
324.398
324.464
324.509
324.729
324.751
324.769
324.722
324.737
324.806
324.736
324.819
324.896
325.047
325.381
314.984
314.843
314.662
314.581
314.623
314.517
314.668
314.659
314.707
314.823
314.815
314.823
314.81
314.838
314.819
314.742
314.893
314.919
315.092
315.255
305.067
305.026
304.889
304.938
304.892
304.892
304.886
304.865
304.983
304.94
305.005
305.01
305.037
304.965
304.987
304.993
304.958
305.027
305.138
305.134
)
;

boundaryField
{
    hotSide
    {
        type            fixedGradient;
        gradient        nonuniform List<scalar> 
400
(
321.511
322.87
325.591
329.677
335.133
341.965
350.181
359.788
370.794
383.208
397.037
412.289
428.971
447.088
466.647
487.651
510.105
534.011
559.372
586.191
323.738
325.08
327.767
331.802
337.194
343.949
352.078
361.591
372.498
384.81
398.537
413.687
430.268
448.289
467.755
488.672
511.043
534.872
560.161
586.913
326.149
327.47
330.116
334.091
339.406
346.071
354.099
363.503
374.296
386.491
400.101
415.136
431.606
449.52
468.885
489.706
511.988
535.735
560.948
587.63
328.704
330
332.597
336.503
341.73
348.292
356.205
365.485
376.15
388.215
401.695
416.604
432.954
450.753
470.009
490.73
512.919
536.579
561.714
588.325
331.33
332.599
335.142
338.97
344.099
350.546
358.332
367.477
378.003
389.928
403.271
418.047
434.27
451.949
471.095
491.712
513.807
537.382
562.439
588.978
333.918
335.158
337.643
341.389
346.414
352.74
360.392
369.397
379.779
391.562
404.765
419.407
435.503
453.065
472.101
492.618
514.622
538.114
563.096
589.569
336.321
337.531
339.959
343.622
348.544
354.751
362.274
371.142
381.385
393.031
406.101
420.618
436.595
454.047
472.983
493.409
515.33
538.747
563.663
590.076
338.36
339.543
341.92
345.509
350.339
356.44
363.847
372.595
382.718
394.244
407.2
421.608
437.485
454.844
473.695
494.045
515.897
539.253
564.114
590.478
339.852
341.015
343.352
346.885
351.645
357.665
364.985
373.643
383.675
395.113
407.984
422.312
438.116
455.407
474.197
494.491
516.294
539.606
564.428
590.758
340.643
341.795
344.11
347.613
352.334
358.311
365.584
374.193
384.176
395.567
408.393
422.679
438.443
455.699
474.456
494.722
516.498
539.788
564.589
590.901
340.643
341.795
344.11
347.613
352.334
358.311
365.584
374.193
384.176
395.567
408.393
422.679
438.443
455.699
474.456
494.722
516.498
539.788
564.589
590.901
339.852
341.015
343.352
346.885
351.645
357.665
364.985
373.643
383.675
395.113
407.984
422.312
438.116
455.407
474.197
494.491
516.294
539.606
564.428
590.758
338.36
339.543
341.92
345.509
350.339
356.44
363.847
372.595
382.718
394.244
407.2
421.608
437.485
454.844
473.695
494.045
515.897
539.253
564.114
590.478
336.321
337.531
339.959
343.622
348.544
354.751
362.274
371.142
381.385
393.031
406.101
420.618
436.595
454.047
472.983
493.409
515.33
538.747
563.663
590.076
333.918
335.158
337.643
341.389
346.414
352.74
360.392
369.397
379.779
391.562
404.765
419.407
435.503
453.065
472.101
492.618
514.622
538.114
563.096
589.569
331.33
332.599
335.142
338.97
344.099
350.546
358.332
367.477
378.003
389.928
403.271
418.047
434.27
451.949
471.095
491.712
513.807
537.382
562.439
588.978
328.704
330
332.597
336.503
341.73
348.292
356.205
365.485
376.15
388.215
401.695
416.604
432.954
450.753
470.009
490.73
512.919
536.579
561.714
588.325
326.149
327.47
330.116
334.091
339.406
346.071
354.099
363.503
374.296
386.491
400.101
415.136
431.606
449.52
468.885
489.706
511.988
535.735
560.948
587.63
323.738
325.08
327.767
331.802
337.194
343.949
352.078
361.591
372.498
384.81
398.537
413.687
430.268
448.289
467.755
488.672
511.043
534.872
560.161
586.913
321.511
322.87
325.591
329.677
335.133
341.965
350.181
359.788
370.794
383.208
397.037
412.289
428.971
447.088
466.647
487.651
510.105
534.011
559.372
586.191
)
;
    }
    coldSide
    {
        type            mixed;
        refValue        uniform 300;
        refGradient     uniform 0;
        valueFraction   uniform 0.991591;
        source          uniform 0;
        value           nonuniform List<scalar> 
400
(
300.028
300.028
300.028
300.029
300.029
300.03
300.03
300.032
300.033
300.033
300.034
300.035
300.036
300.037
300.038
300.039
300.039
300.041
300.041
300.043
300.027
300.027
300.028
300.027
300.029
300.029
300.03
300.031
300.032
300.033
300.033
300.034
300.036
300.037
300.037
300.039