/*--------------------------------*- C++ -*----------------------------------*\
| =========                 |                                                 |
| \\      /  F ield         | OpenFOAM: The Open Source CFD Toolbox           |
|  \\    /   O peration     | Version:  2212                                  |
|   \\  /    A nd           | Website:  www.openfoam.com                      |
|    \\/     M anipulation  |                                                 |
\*---------------------------------------------------------------------------*/
FoamFile
{
    version     2.0;
    format      ascii;
    arch        "LSB;label=32;scalar=64";
    class       volScalarField;
    location    "0";
    object      T;
}
// * * * * * * * * * * * * * * * * * * * * * * * * * * * * * * * * * * * * * //

dimensions      [0 0 0 1 0 0 0];

internalField   nonuniform List<scalar> 
3200
(
317.828
318.447
318.811
318.905
319.324
319.47
319.849
319.968
319.908
319.909
319.925
320.07
319.966
319.557
319.512
319.448
319.117
318.65
318.206
318.079
315.496
316.027
316.355
316.416
316.748
316.881
317.223
317.354
317.299
317.27
317.283
317.398
317.354
316.957
316.963
316.911
316.613
316.192
315.817
315.675
313.155
313.548
313.881
313.923
314.187
314.252
314.581
314.721
314.684
314.647
314.589
314.762
314.735
314.348
314.38
314.335
314.055
313.745
313.403
313.266
310.761
311.047
311.284
311.379
311.573
311.641
311.952
312.059
312.015
312.011
311.903
312.086
312.083
311.726
311.772
311.713
311.475
311.24
310.957
310.875
308.403
308.57
308.749
308.814
308.991
308.992
309.312
309.4
309.35
309.356
309.256
309.419
309.417
309.125
309.153
309.127
308.93
308.741
308.509
308.483
306.028
306.115
306.227
306.246
306.425
306.391
306.662
306.78
306.668
306.673
306.634
306.744
306.725
306.501
306.534
306.531
306.384
306.264
306.091
306.065
303.625
303.664
303.716
303.738
303.852
303.815
304.017
304.111
303.97
304.016
303.959
304.05
304.046
303.901
303.914
303.909
303.837
303.78
303.661
303.673
301.232
301.241
301.237
301.262
301.281
301.294
301.342
301.38
301.319
301.345
301.32
301.376
301.359
301.309
301.307
301.32
301.282
301.268
301.237
301.238
318.737
319.101
319.426
319.666
320.027
320.092
320.495
320.634
320.512
320.594
320.767
320.811
320.531
320.353
320.255
320.18
319.7
319.396
318.973
318.575
316.183
316.539
316.849
316.985
317.354
317.438
317.784
317.88
317.832
317.831
318.005
318.073
317.797
317.619
317.557
317.46
317.102
316.82
316.427
316.093
313.669
313.937
314.259
314.331
314.685
314.796
315.06
315.113
315.101
315.108
315.246
315.297
315.051
314.904
314.851
314.733
314.496
314.234
313.945
313.591
311.157
311.364
311.665
311.711
312.003
312.09
312.339
312.337
312.344
312.35
312.413
312.526
312.29
312.211
312.15
312.039
311.894
311.632
311.399
311.104
308.617
308.797
309.073
309.1
309.278
309.43
309.598
309.582
309.607
309.607
309.643
309.739
309.545
309.513
309.45
309.358
309.243
309.004
308.84
308.62
306.127
306.299
306.497
306.511
306.576
306.722
306.825
306.876
306.919
306.828
306.854
306.93
306.823
306.771
306.783
306.696
306.593
306.433
306.333
306.159
303.669
303.765
303.885
303.934
303.911
304.033
304.094
304.18
304.17
304.103
304.137
304.169
304.078
304.089
304.073
304.012
303.926
303.864
303.803
303.698
301.229
301.229
301.297
301.296
301.294
301.34
301.366
301.414
301.394
301.375
301.389
301.391
301.353
301.356
301.364
301.345
301.299
301.283
301.282
301.243
319.534
319.907
320.349
320.576
320.691
321.066
321.172
321.387
321.575
321.509
321.637
321.832
321.531
321.29
321.18
320.803
320.59
320.329
319.93
319.389
316.913
317.229
317.634
317.806
317.915
318.226
318.36
318.555
318.678
318.583
318.758
318.892
318.632
318.384
318.326
317.987
317.793
317.579
317.26
316.795
314.311
314.518
314.896
315.095
315.152
315.399
315.538
315.729
315.785
315.67
315.888
315.974
315.72
315.519
315.507
315.183
315.047
314.803
314.605
314.215
311.68
311.869
312.153
312.309
312.377
312.601
312.68
312.816
312.884
312.789
313.018
313.047
312.885
312.644
312.709
312.432
312.233
312.045
311.943
311.642
309.042
309.214
309.416
309.547
309.631
309.774
309.854
309.963
310.012
309.924
310.097
310.108
310.002
309.823
309.921
309.697
309.471
309.366
309.284
309.06
306.468
306.524
306.702
306.782
306.848
306.957
307.018
307.145
307.18
307.096
307.157
307.196
307.157
307.008
307.098
306.936
306.719
306.699
306.651
306.502
303.889
303.906
304.03
304.031
304.122
304.141
304.204
304.315
304.309
304.271
304.27
304.3
304.306
304.2
304.255
304.173
304.03
304.029
303.998
303.902
301.305
301.306
301.36
301.362
301.41
301.389
301.399
301.436
301.451
301.429
301.434
301.418
301.453
301.409
301.422
301.383
301.341
301.359
301.343
301.306
320.456
320.806
321.234
321.568
321.847
322.167
322.326
322.55
322.729
322.538
322.653
322.722
322.584
322.34
322.031
322.02
321.686
321.454
321.069
320.591
317.717
318.049
318.355
318.696
318.917
319.157
319.303
319.516
319.673
319.49
319.6
319.668
319.563
319.312
319.039
319.039
318.759
318.585
318.217
317.8
315.006
315.243
315.513
315.787
315.964
316.211
316.287
316.514
316.634
316.478
316.557
316.623
316.519
316.302
316.087
316.082
315.812
315.719
315.386
314.992
312.304
312.48
312.679
312.909
313.032
313.221
313.307
313.527
313.655
313.461
313.548
313.55
313.495
313.293
313.13
313.09
312.914
312.815
312.57
312.232
309.612
309.693
309.871
310.083
310.14
310.231
310.314
310.532
310.656
310.442
310.538
310.46
310.458
310.307
310.222
310.152
310.017
309.93
309.785
309.478
306.883
306.93
307.041
307.2
307.205
307.269
307.343
307.542
307.688
307.468
307.56
307.457
307.475
307.374
307.293
307.251
307.113
307.085
306.984
306.748
304.122
304.166
304.22
304.299
304.308
304.358
304.401
304.538
304.642
304.502
304.555
304.449
304.497
304.417
304.363
304.333
304.269
304.237
304.173
304.053
301.36
301.411
301.409
301.462
301.441
301.451
301.475
301.531
301.554
301.52
301.541
301.485
301.498
301.497
301.453
301.452
301.437
301.4
301.395
301.358
321.295
321.806
322.259
322.57
322.596
323.078
323.33
323.571
323.759
323.807
323.785
323.858
323.773
323.361
323.302
323.208
322.668
322.3
322.068
321.649
318.451
318.872
319.297
319.56
319.542
319.921
320.145
320.41
320.576
320.612
320.554
320.614
320.596
320.186
320.193
320.084
319.637
319.344
319.109
318.759
315.622
315.963
316.325
316.551
316.527
316.822
316.985
317.245
317.389
317.422
317.353
317.401
317.422
316.996
317.033
316.999
316.521
316.399
316.162
315.874
312.788
313.031
313.374
313.557
313.542
313.748
313.844
314.092
314.231
314.229
314.177
314.196
314.241
313.827
313.88
313.857
313.464
313.412
313.219
313.027
309.921
310.103
310.418
310.584
310.543
310.673
310.767
310.965
311.096
311.065
311.019
310.996
311.104
310.744
310.738
310.744
310.437
310.413
310.244
310.111
307.028
307.196
307.486
307.546
307.557
307.649
307.674
307.836
307.976
307.901
307.852
307.857
307.958
307.698
307.62
307.677
307.441
307.462
307.303
307.18
304.2
304.303
304.504
304.523
304.548
304.628
304.568
304.68
304.769
304.755
304.728
304.729
304.799
304.614
304.583
304.609
304.433
304.483
304.359
304.308
301.408
301.438
301.522
301.503
301.519
301.522
301.524
301.554
301.613
301.597
301.6
301.594
301.607
301.535
301.524
301.529
301.475
301.496
301.437
301.441
322.183
322.687
323.394
323.657
323.784
324.1
324.557
324.671
324.954
324.697
324.811
324.9
324.813
324.512
324.067
324.109
323.765
323.407
323.231
322.722
319.235
319.658
320.305
320.534
320.578
320.856
321.261
321.333
321.591
321.392
321.513
321.583
321.514
321.232
320.817
320.873
320.539
320.238
320.12
319.673
316.223
316.621
317.187
317.357
317.439
317.603
317.966
318.016
318.224
318.109
318.232
318.191
318.208
317.954
317.591
317.678
317.345
317.082
317.017
316.639
313.244
313.599
314.061
314.134
314.24
314.408
314.721
314.736
314.894
314.796
314.936
314.876
314.902
314.679
314.366
314.456
314.173
313.903
313.88
313.597
310.277
310.582
310.959
311.002
311.067
311.209
311.474
311.436
311.565
311.464
311.624
311.588
311.559
311.44
311.138
311.207
311.017
310.827
310.758
310.538
307.311
307.564
307.815
307.855
307.931
308.014
308.192
308.153
308.225
308.148
308.333
308.305
308.237
308.184
307.93
308.007
307.887
307.733
307.666
307.504
304.381
304.553
304.705
304.725
304.77
304.804
304.885
304.887
304.93
304.893
305.002
305.021
304.916
304.868
304.75
304.806
304.748
304.646
304.58
304.519
301.448
301.53
301.588
301.58
301.623
301.601
301.618
301.621
301.649
301.646
301.675
301.694
301.65
301.608
301.584
301.624
301.593
301.562
301.527
301.519
323.163
323.594
324.239
324.692
324.887
325.281
325.633
325.809
325.647
325.938
325.91
325.993
325.975
325.682
325.334
325.119
325.049
324.671
324.339
323.792
320.044
320.383
320.96
321.342
321.555
321.852
322.203
322.338
322.226
322.437
322.466
322.533
322.483
322.193
321.916
321.709
321.678
321.422
321.057
320.64
316.937
317.233
317.693
318.024
318.209
318.435
318.784
318.865
318.83
318.955
318.973
319.063
318.989
318.741
318.497
318.312
318.3
318.139
317.78
317.475
313.816
314.047
314.425
314.726
314.9
315.078
315.338
315.419
315.386
315.545
315.527
315.568
315.556
315.281
315.131
314.948
314.966
314.792
314.56
314.339
310.7
310.923
311.214
311.451
311.584
311.732
311.87
311.996
311.961
312.131
312.108
312.103
312.088
311.896
311.807
311.618
311.639
311.486
311.359
311.149
307.6
307.771
308.024
308.149
308.307
308.378
308.505
308.558
308.513
308.674
308.691
308.672
308.62
308.499
308.459
308.271
308.352
308.226
308.174
307.984
304.527
304.677
304.82
304.892
305.034
305.049
305.103
305.123
305.132
305.217
305.226
305.208
305.177
305.089
305.075
304.988
305.043
304.989
304.921
304.788
301.514
301.565
301.61
301.639
301.691
301.703
301.693
301.705
301.717
301.737
301.762
301.733
301.736
301.702
301.709
301.681
301.702
301.664
301.652
301.611
324.229
324.661
325.01
325.67
326.021
326.206
326.516
326.698
326.741
326.948
327.149
327.008
326.932
326.886
326.417
326.344
326.042
325.743
325.284
324.75
321.051
321.364
321.64
322.226
322.494
322.691
322.937
323.124
323.167
323.307
323.477
323.391
323.292
323.257
322.859
322.815
322.517
322.284
321.904
321.444
317.821
318.062
318.309
318.791
319.015
319.181
319.432
319.549
319.534
319.701
319.85
319.797
319.688
319.664
319.316
319.291
319.017
318.804
318.568
318.14
314.586
314.728
314.949
315.356
315.57
315.638
315.896
315.963
315.946
316.109
316.264
316.212
316.137
316.045
315.804
315.766
315.541
315.321
315.226
314.862
311.353
311.4
311.588
311.926
312.11
312.15
312.375
312.366
312.34
312.55
312.646
312.547
312.559
312.441
312.335
312.236
312.044
311.838
311.865
311.601
308.128
308.104
308.269
308.499
308.664
308.674
308.872
308.786
308.775
308.979
309.068
308.936
308.962
308.873
308.806
308.7
308.607
308.423
308.456
308.315
304.882
304.839
304.955
305.095
305.193
305.214
305.322
305.255
305.227
305.399
305.468
305.371
305.404
305.352
305.294
305.182
305.164
305.043
305.023
305.014
301.615
301.631
301.67
301.703
301.75
301.741
301.788
301.754
301.743
301.79
301.852
301.799
301.814
301.807
301.79
301.742
301.723
301.69
301.675
301.701
325.156
325.414
326.076
326.517
326.914
327.386
327.48
327.913
327.987
328.052
328.292
328.062
328.037
327.901
327.532
327.293
327.182
326.88
326.295
325.641
321.812
321.993
322.554
322.898
323.293
323.705
323.76
324.185
324.246
324.228
324.487
324.293
324.211
324.124
323.803
323.636
323.54
323.252
322.799
322.255
318.46
318.534
319.062
319.318
319.682
320.043
320.068
320.48
320.526
320.451
320.682
320.532
320.423
320.348
320.085
320.001
319.944
319.614
319.309
318.869
315.082
315.115
315.614
315.783
316.09
316.382
316.403
316.724
316.77
316.724
316.895
316.779
316.662
316.617
316.4
316.37
316.334
316.045
315.79
315.443
311.698
311.704
312.15
312.27
312.507
312.689
312.723
312.987
313.007
312.981
313.129
313.058
312.9
312.868
312.708
312.705
312.705
312.467
312.339
312.03
308.348
308.355
308.676
308.739
308.944
309.043
309.069
309.285
309.256
309.254
309.419
309.322
309.19
309.155
309.082
309.079
309.051
308.916
308.809
308.6
305.012
305.018
305.2
305.266
305.371
305.448
305.416
305.606
305.555
305.565
305.663
305.627
305.544
305.468
305.414
305.459
305.421
305.35
305.285
305.16
301.665
301.668
301.731
301.788
301.818
301.828
301.831
301.875
301.874
301.866
301.915
301.884
301.847
301.827
301.819
301.818
301.805
301.796
301.769
301.719
325.829
326.255
326.727
327.341
327.766
328.338
328.491
328.938
328.906
329.022
329.08
328.999
328.847
328.727
328.74
328.449
328.348
327.459
327.049
326.58
322.367
322.742
323.146
323.631
324.048
324.52
324.698
325.037
325.005
325.096
325.18
325.111
324.898
324.868
324.873
324.632
324.592
323.797
323.422
323.056
318.957
319.217
319.569
319.93
320.309
320.72
320.892
321.159
321.112
321.215
321.303
321.174
321.024
320.978
321.033
320.837
320.822
320.099
319.809
319.504
315.532
315.662
315.995
316.26
316.557
316.906
317.091
317.29
317.231
317.34
317.444
317.3
317.164
317.122
317.174
317.042
317.004
316.434
316.213
316.002
312.106
312.195
312.39
312.633
312.821
313.139
313.28
313.462
313.405
313.471
313.564
313.427
313.316
313.268
313.357
313.249
313.185
312.783
312.579
312.469
308.669
308.708
308.846
308.987
309.139
309.382
309.453
309.63
309.583
309.616
309.7
309.561
309.497
309.453
309.545
309.455
309.391
309.125
309.002
308.921
305.212
305.217
305.293
305.384
305.48
305.613
305.638
305.81
305.722
305.776
305.829
305.724
305.716
305.632
305.727
305.649
305.639
305.494
305.429
305.349
301.755
301.749
301.776
301.801
301.824
301.88
301.883
301.954
301.913
301.943
301.954
301.928
301.896
301.882
301.917
301.888
301.911
301.836
301.838
301.784
326.607
326.93
327.782
328.206
328.748
328.89
329.397
329.672
329.775
329.789
329.766
330.054
329.787
329.613
329.368
329.301
328.854
328.453
327.696
327.403
323.059
323.318
324.074
324.415
324.922
325.009
325.482
325.686
325.782
325.751
325.732
326.05
325.799
325.646
325.412
325.359
324.984
324.678
323.977
323.792
319.549
319.661
320.349
320.64
321.057
321.13
321.538
321.728
321.747
321.753
321.75
322.031
321.788
321.704
321.475
321.422
321.126
320.818
320.255
320.167
316.01
316.059
316.633
316.869
317.201
317.263
317.618
317.786
317.755
317.822
317.793
318.038
317.804
317.751
317.573
317.519
317.32
317.008
316.591
316.506
312.453
312.484
312.898
313.097
313.342
313.403
313.682
313.853
313.785
313.906
313.837
313.976
313.848
313.786
313.692
313.609
313.5
313.227
312.954
312.86
308.887
308.941
309.166
309.36
309.516
309.543
309.768
309.909
309.819
309.937
309.891
309.971
309.876
309.828
309.8
309.721
309.681
309.442
309.276
309.196
305.349
305.356
305.465
305.618
305.699
305.741
305.86
305.97
305.893
305.956
305.945
305.983
305.913
305.848
305.875
305.835
305.815
305.656
305.57
305.511
301.796
301.793
301.802
301.87
301.886
301.911
301.985
302.006
301.969
301.98
302.008
302.011
301.984
301.949
301.98
301.956
301.963
301.903
301.859
301.848
327.373
327.98
328.365
328.875
329.35
330.011
330.295
330.613
330.82
330.959
330.841
331.209
330.635
330.613
330.336
330.077
329.72
329.485
328.683
328.191
323.728
324.234
324.585
324.984
325.407
326.005
326.221
326.49
326.639
326.779
326.659
327.028
326.507
326.519
326.248
326.05
325.738
325.539
324.853
324.436
320.027
320.462
320.817
321.115
321.512
322.011
322.224
322.343
322.466
322.61
322.472
322.865
322.406
322.432
322.152
322.04
321.747
321.556
320.987
320.684
316.325
316.713
317.027
317.225
317.587
317.941
318.205
318.269
318.358
318.472
318.334
318.648
318.323
318.378
318.04
318.008
317.784
317.592
317.133
316.958
312.668
312.959
313.227
313.362
313.665
313.917
314.172
314.239
314.267
314.359
314.18
314.462
314.233
314.295
313.985
314.016
313.834
313.628
313.314
313.213
309.056
309.254
309.486
309.512
309.761
309.905
310.153
310.17
310.154
310.237
310.081
310.302
310.157
310.187
309.961
310.008
309.88
309.689
309.521
309.403
305.463
305.564
305.721
305.7
305.865
305.944
306.087
306.09
306.081
306.134
306.045
306.22
306.095
306.114
305.962
306.048
305.917
305.77
305.716
305.64
301.804
301.853
301.911
301.904
301.981
301.977
302.036
302.034
302.049
302.068
302.036
302.093
302.054
302.066
301.994
302.035
301.963
301.928
301.92
301.897
328.118
328.711
329.107
329.522
330.218
330.771
331.148
331.451
331.661
331.765
331.814
331.915
331.772
331.394
331.208
330.925
330.54
330.121
329.555
329.105
324.389
324.882
325.199
325.538
326.173
326.685
327.005
327.248
327.41
327.501
327.531
327.623
327.51
327.175
327
326.762
326.449
326.073
325.576
325.187
320.613
321.051
321.301
321.592
322.152
322.568
322.848
323.077
323.209
323.262
323.263
323.303
323.229
322.954
322.824
322.658
322.377
322.011
321.607
321.32
316.871
317.276
317.409
317.653
318.127
318.42
318.691
318.907
318.966
319.01
319.021
319.039
318.941
318.807
318.618
318.55
318.301
317.924
317.639
317.426
313.144
313.454
313.508
313.748
314.076
314.292
314.539
314.727
314.727
314.771
314.823
314.761
314.672
314.61
314.457
314.476
314.195
313.904
313.748
313.495
309.394
309.624
309.629
309.811
310.08
310.209
310.363
310.52
310.515
310.563
310.622
310.525
310.471
310.426
310.305
310.359
310.134
309.914
309.845
309.604
305.694
305.759
305.781
305.909
306.069
306.129
306.227
306.276
306.321
306.342
306.362
306.29
306.295
306.263
306.217
306.226
306.065
305.972
305.888
305.751
301.92
301.919
301.934
301.966
302.056
302.061
302.081
302.092
302.121
302.135
302.135
302.099
302.115
302.083
302.091
302.101
302.033
302.024
301.98
301.898
328.599
329.312
330.018
330.439
331.074
331.668
331.93
332.269
332.576
332.686
332.732
332.874
332.556
332.398
332.254
331.772
331.416
330.718
330.268
329.872
324.793
325.392
325.943
326.334
326.92
327.449
327.647
327.949
328.179
328.293
328.308
328.44
328.23
328.098
327.893
327.559
327.182
326.546
326.205
325.881
320.964
321.464
321.915
322.26
322.756
323.199
323.349
323.631
323.761
323.93
323.908
324.008
323.903
323.764
323.589
323.352
322.975
322.35
322.138
321.904
317.139
317.6
317.906
318.221
318.603
318.964
319.094
319.313
319.395
319.565
319.537
319.62
319.606
319.449
319.292
319.152
318.803
318.273
318.104
317.893
313.313
313.749
313.932
314.185
314.468
314.734
314.802
315.012
315.103
315.187
315.213
315.238
315.253
315.146
315.002
314.884
314.597
314.231
314.017
313.868
309.497
309.876
309.952
310.125
310.362
310.489
310.555
310.739
310.766
310.819
310.861
310.851
310.856
310.808
310.728
310.641
310.422
310.198
310.001
309.936
305.71
305.946
305.98
306.079
306.25
306.264
306.296
306.408
306.484
306.494
306.512
306.537
306.47
306.48
306.436
306.362
306.245
306.132
306.014
305.968
301.931
302.003
302.019
302.04
302.108
302.101
302.09
302.131
302.176
302.184
302.167
302.203
302.176
302.166
302.165
302.137
302.099
302.045
302.023
301.998
328.891
329.777
330.442
331.01
331.828
332.386
332.742
332.972
333.278
333.669
333.647
333.684
333.537
333.3
332.826
332.578
332.133
331.68
330.955
330.532
325.009
325.778
326.379
326.826
327.556
328.057
328.337
328.577
328.785
329.146
329.133
329.157
329.06
328.8
328.432
328.205
327.833
327.437
326.783
326.469
321.169
321.814
322.255
322.669
323.308
323.731
323.977
324.159
324.323
324.647
324.622
324.674
324.551
324.364
324.009
323.862
323.538
323.176
322.676
322.408
317.333
317.876
318.195
318.605
319.08
319.41
319.625
319.733
319.814
320.188
320.116
320.157
320.053
319.915
319.603
319.509
319.249
318.914
318.582
318.332
313.507
313.916
314.215
314.472
314.856
315.07
315.251
315.334
315.357
315.728
315.625
315.632
315.557
315.477
315.249
315.189
314.942
314.688
314.455
314.259
309.673
309.98
310.162
310.316
310.595
310.725
310.862
310.917
310.946
311.241
311.129
311.135
311.11
311.028
310.854
310.824
310.627
310.499
310.303
310.187
305.869
306.029
306.123
306.2
306.348
306.438
306.501
306.548
306.542
306.773
306.651
306.682
306.683
306.601
306.501
306.501
306.375
306.31
306.207
306.12
301.977
302.014
302.053
302.076
302.121
302.162
302.178
302.194
302.17
302.263
302.239
302.25
302.234
302.206
302.183
302.177
302.128
302.105
302.081
302.064
329.597
330.436
331.161
331.768
332.472
332.977
333.418
333.764
333.76
334.32
334.146
334.204
334.087
333.787
333.495
333.193
332.851
332.39
331.699
330.966
325.647
326.356
326.963
327.52
328.118
328.526
328.957
329.27
329.227
329.738
329.574
329.638
329.516
329.268
328.986
328.704
328.421
328.059
327.424
326.814
321.679
322.313
322.768
323.291
323.782
324.077
324.512
324.806
324.688
325.175
324.979
325.094
324.969
324.761
324.49
324.212
324.026
323.768
323.219
322.668
317.726
318.236
318.604
319.032
319.505
319.617
320.039
320.286
320.187
320.583
320.437
320.514
320.388
320.236
320.03
319.801
319.623
319.433
319.032
318.506
313.769
314.225
314.476
314.785
315.159
315.23
315.545
315.783
315.687
316
315.895
315.962
315.808
315.681
315.567
315.371
315.249
315.133
314.875
314.396
309.809
310.161
310.34
310.566
310.807
310.872
311.103
311.28
311.215
311.45
311.334
311.402
311.279
311.185
311.144
310.991
310.907
310.791
310.64
310.282
305.84
306.116
306.232
306.338
306.498
306.523
306.649
306.784
306.718
306.872
306.828
306.828
306.76
306.709
306.692
306.606
306.553
306.47
306.389
306.167
301.945
302.04
302.084
302.128
302.189
302.182
302.238
302.268
302.23
302.313
302.299
302.272
302.285
302.245
302.241
302.22
302.208
302.172
302.126
302.062
330.108
330.848
331.532
332.249
332.905
333.243
333.934
334.176
334.481
334.806
334.811
334.667
334.658
334.431
334.038
333.557
333.414
333.026
332.259
331.323
326.069
326.704
327.262
327.922
328.476
328.725
329.375
329.601
329.836
330.135
330.135
330.022
330.01
329.824
329.486
329.057
328.903
328.653
327.922
327.149
322.001
322.54
323.08
323.583
324.069
324.238
324.84
325.066
325.221
325.499
325.468
325.384
325.352
325.251
324.915
324.538
324.427
324.247
323.568
323.015
317.946
318.424
318.909
319.292
319.659
319.792
320.305
320.539
320.649
320.868
320.819
320.756
320.73
320.688
320.399
320.056
319.955
319.849
319.272
318.845
313.925
314.394
314.782
315.017
315.279
315.352
315.723
316.019
316.03
316.232
316.167
316.134
316.095
316.048
315.885
315.6
315.5
315.416
315.009
314.636
309.903
310.296
310.607
310.727
310.915
310.924
311.178
311.484
311.445
311.6
311.573
311.513
311.47
311.461
311.372
311.152
311.102
311.012
310.768
310.468
305.937
306.196
306.378
306.456
306.574
306.553
306.676
306.878
306.873
306.953
306.989
306.904
306.884
306.869
306.846
306.676
306.697
306.614
306.424
306.279
301.987
302.075
302.125
302.151
302.21
302.178
302.236
302.276
302.305
302.32
302.367
302.3
302.308
302.287
302.308
302.224
302.253
302.215
302.151
302.106
330.396
331.353
332.15
332.719
333.161
333.798
334.434
334.665
334.932
335.308
335.226
335.128
335.165
335.186
334.762
334.215
333.811
333.391
332.69
332.004
326.35
327.16
327.835
328.313
328.728
329.249
329.828
329.983
330.255
330.553
330.505
330.412
330.444
330.508
330.127
329.589
329.278
328.93
328.314
327.684
322.329
322.986
323.529
323.949
324.275
324.701
325.215
325.312
325.564
325.819
325.786
325.685
325.734
325.839
325.502
325.028
324.75
324.487
323.935
323.356
318.249
318.796
319.259
319.598
319.856
320.22
320.608
320.7
320.881
321.124
321.095
320.987
321.029
321.187
320.865
320.499
320.219
320.051
319.56
319.088
314.167
314.636
314.99
315.252
315.453
315.734
316.009
316.115
316.271
316.446
316.409
316.309
316.337
316.479
316.23
315.973
315.736
315.579
315.204
314.867
310.092
310.445
310.707
310.871
311.043
311.257
311.424
311.558
311.593
311.76
311.702
311.654
311.683
311.75
311.612
311.419
311.227
311.121
310.88
310.624
306.075
306.263
306.406
306.509
306.621
306.765
306.869
307.016
306.963
307.1
307.049
307.02
307.032
307.043
307.009
306.844
306.741
306.661
306.569
306.337
302.029
302.089
302.157
302.196
302.213
302.227
302.311
302.354
302.342
302.391
302.378
302.355
302.361
302.373
302.355
302.286
302.259
302.23
302.206
302.114
330.899
331.637
332.338
333.079
333.755
334.423
334.765
335.286
335.186
335.448
335.564
335.574
335.698
335.622
335.202
334.892
334.483
334.05
333.171
332.532
326.809
327.413
327.948
328.596
329.169
329.801
330.094
330.505
330.485
330.695
330.772
330.778
330.909
330.87
330.517
330.206
329.853
329.462
328.706
328.112
322.671
323.191
323.568
324.172
324.6
325.201
325.398
325.752
325.741
325.927
326.016
325.994
326.077
326.118
325.837
325.508
325.197
324.907
324.265
323.747
318.536
318.96
319.252
319.769
320.123
320.604
320.731
321.034
321.04
321.123
321.265
321.225
321.292
321.354
321.14
320.872
320.514
320.373
319.795
319.386
314.403
314.775
314.984
315.348
315.62
315.976
316.101
316.298
316.308
316.405
316.496
316.472
316.558
316.581
316.484
316.241
315.913
315.858
315.379
315.023
310.309
310.577
310.67
310.908
311.147
311.397
311.504
311.647
311.649
311.734
311.777
311.755
311.856
311.852
311.763
311.624
311.354
311.332
311.011
310.699
306.194
306.331
306.385
306.523
306.702
306.835
306.92
306.981
307
307.049
307.091
307.075
307.117
307.103
307.062
307.013
306.809
306.804
306.651
306.423
302.069
302.117
302.128
302.172
302.233
302.287
302.328
302.346
302.354
302.366
302.383
302.39
302.379
302.394
302.382
302.367
302.279
302.295
302.238
302.16
331.295
331.849
332.417
333.214
333.832
334.647
334.959
335.489
335.543
335.706
335.97
335.886
335.977
335.902
335.597
335.112
334.82
334.288
333.271
332.848
327.119
327.559
328.017
328.75
329.313
329.969
330.261
330.71
330.742
330.843
331.117
331.058
331.133
331.115
330.829
330.368
330.177
329.662
328.825
328.445
322.963
323.338
323.621
324.336
324.781
325.336
325.557
325.977
325.965
325.974
326.249
326.229
326.307
326.319
326.07
325.648
325.524
325.05
324.344
324.06
318.809
319.072
319.283
319.927
320.23
320.727
320.848
321.258
321.206
321.21
321.436
321.395
321.504
321.48
321.328
320.955
320.894
320.489
319.895
319.701
314.59
314.852
314.984
315.515
315.682
316.111
316.2
316.5
316.429
316.479
316.639
316.617
316.709
316.707
316.58
316.348
316.249
315.944
315.424
315.373
310.398
310.623
310.708
311.066
311.176
311.466
311.553
311.761
311.727
311.726
311.86
311.864
311.932
311.974
311.832
311.708
311.609
311.419
311.02
311.009
306.23
306.369
306.433
306.606
306.714
306.875
306.95
307.029
307.038
307.008
307.126
307.095
307.165
307.221
307.085
306.994
306.988
306.871
306.622
306.581
302.092
302.144
302.162
302.21
302.238
302.297
302.326
302.357
302.361
302.378
302.376
302.369
302.407
302.416
302.373
302.325
302.325
302.315
302.217
302.206
)
;

boundaryField
{
    hotSide
    {
        type            fixedGradient;
        gradient        nonuniform List<scalar> 
400
(
188.351
198.473
208.572
218.605
228.525
238.286
247.842
257.145
266.15
274.81
283.082
290.923
298.29
305.147
311.457
317.187
322.307
326.791
330.615
333.762
192.325
202.783
213.223
223.599
233.863
243.968
253.864
263.505
272.841
281.825
290.412
298.556
306.216
313.352
319.925
325.901
331.25
335.943
339.958
343.273
195.838
206.61
217.368
228.064
238.65
249.076
259.292
269.248
278.896
288.185
297.068
305.5
313.436
320.834
327.657
333.867
339.434
344.327
348.523
352.001
198.888
209.949
220.999
231.99
242.873
253.596
264.108
274.358
284.293
293.865
303.025
311.723
319.917
327.561
334.617
341.047
346.818
351.9
356.267
359.898
201.476
212.798
224.113
235.373
246.526
257.519
268.301
278.817
289.017
298.847
308.259
317.203
325.632
333.503
340.773
347.406
353.366
358.623
363.15
366.925
203.606
215.159
226.711
238.21
249.603
260.838
271.86
282.616
293.052
303.115
312.753
321.917
330.56
338.634
346.1
352.916
359.048
364.464
369.137
373.043
205.281
217.036
228.793
240.5
252.103
263.548
274.78
285.745
296.388
306.654
316.492
325.85
334.68
342.935
350.572
357.551
363.836
369.394
374.197
378.222
206.509
218.433
230.362
242.243
254.023
265.646
277.056
288.198
299.017
309.456
319.464
328.987
337.977
346.386
354.171
361.29
367.706
373.387
378.304
382.432
207.295
219.354
231.421
243.443
255.365
267.131
278.685
289.97
300.931
311.511
321.657
331.315
340.437
348.973
356.879
364.114
370.639
376.423
381.434
385.649
207.644
219.803
231.972
244.098
256.126
268
279.662
291.056
302.124
312.812
323.063
332.825
342.047
350.681
358.681
366.006
372.617
378.481
383.568
387.852
207.56
219.782
232.017
244.211
256.308
268.252
279.986
291.451
302.592
313.351
323.674
333.507
342.798
351.499
359.565
366.953
373.625
379.547
384.688
389.024
207.046
219.294
231.557
243.781
255.909
267.886
279.653
291.153
302.329
313.124
323.483
333.352
342.68
351.418
359.52
366.944
373.651
379.607
384.781
389.149
206.101
218.339
230.592
242.807
254.927
266.898
278.66
290.157
301.331
312.125
322.485
332.356
341.688
350.431
358.539
365.97
372.686
378.651
383.837
388.217
204.726
216.914
229.119
241.286
253.361
265.286
277.005
288.46
299.594
310.351
320.675
330.514
339.815
348.531
356.615
364.025
370.723
376.675
381.849
386.222
202.919
215.02
227.137
239.218
251.207
263.049
274.685
286.06
297.117
307.799
318.052
327.823
337.061
345.718
353.747
361.108
367.762
373.675
378.816
383.162
200.677
212.653
224.645
236.601
248.466
260.184
271.7
282.957
293.899
304.47
314.616
324.285
333.427
341.993
349.938
357.221
363.805
369.655
374.742
379.042
197.998
209.811
221.641
233.434
245.136
256.694
268.052
279.153
289.943
300.367
310.372
319.905
328.917
337.362
345.194
352.372
358.861
364.625
369.636
373.871
194.88
206.495
218.124
229.717
241.221
252.581
263.743
274.653
285.256
295.498
305.327
314.692
323.544
331.837
339.528
346.575
352.943
358.6
363.515
367.667
191.324
202.705
214.099
225.457
236.725
247.852
258.783
269.466
279.848
289.875
299.496
308.661
317.323
325.436
332.958
339.85
346.075
351.602
356.403
360.455
187.333
198.446
209.571
220.659
231.658
242.517
253.185
263.608
273.735
283.515
292.898
301.834
310.278
318.184
325.513
332.225
338.285
343.663
348.332
352.268
)
;
    }
    coldSide
    {
        type            mixed;
        refValue        uniform 300;
        refGradient     uniform 0;
        valueFraction   uniform 0.991591;
        source          uniform 0;
        value           nonuniform List<scalar> 
400
(
300.01
300.01
300.011
300.011
300.012
300.012
300.013
300.014
300.014
300.015
300.015
300.015
300.016
300.016
300.017
300.016
300.017
300.017
300.017
300.018
300.01
300.01
300.011
300.012
300.012
300.013
300.013
300.014
300.014
300.015
300.015
300.016
300.016
300.017
300.017
300.017
300.017
300.018
300.018
300.018
300.01
300.011