/*--------------------------------*- C++ -*----------------------------------*\
| =========                 |                                                 |
| \\      /  F ield         | OpenFOAM: The Open Source CFD Toolbox           |
|  \\    /   O peration     | Version:  2212                                  |
|   \\  /    A nd           | Website:  www.openfoam.com                      |
|    \\/     M anipulation  |                                                 |
\*---------------------------------------------------------------------------*/
FoamFile
{
    version     2.0;
    format      ascii;
    arch        "LSB;label=32;scalar=64";
    class       volScalarField;
    location    "./ITHACAoutput/true/11.4";
    object      error;
}
// * * * * * * * * * * * * * * * * * * * * * * * * * * * * * * * * * * * * * //

dimensions      [0 0 0 1 0 0 0];

internalField   nonuniform List<scalar> 
3200
(
3.8391
3.9801
4.28613
4.67866
5.00845
5.41262
5.84509
6.30317
6.52898
6.70096
6.80917
6.68005
6.50988
6.25068
5.96411
5.53113
5.13163
4.92429
4.78647
4.66238
3.25592
3.40803
3.60482
3.92212
4.27433
4.59164
4.94076
5.32501
5.56475
5.70477
5.78614
5.71206
5.52968
5.25201
5.00598
4.7242
4.42358
4.16257
3.96719
4.03629
2.71504
2.85146
3.02909
3.20215
3.48666
3.86196
4.15798
4.41018
4.64434
4.79968
4.72381
4.67083
4.5528
4.36511
4.17199
3.87885
3.6699
3.50146
3.36582
3.27727
2.21332
2.30741
2.38999
2.703
2.86708
3.10097
3.33201
3.5402
3.80826
3.85582
3.82703
3.79164
3.69929
3.52605
3.33893
3.153
2.89128
2.82716
2.684
2.6335
1.68577
1.74525
1.88768
1.9542
2.11071
2.42742
2.60415
2.7946
2.92688
2.9601
3.02589
2.95528
2.93352
2.72607
2.53145
2.46054
2.305
2.18711
2.10598
2.05821
1.25145
1.28782
1.27955
1.44634
1.53876
1.68902
1.79595
1.94197
2.11305
2.1253
2.13995
2.06859
2.02392
1.90368
1.82717
1.70044
1.65008
1.51589
1.42033
1.47556
0.790073
0.70826
0.760302
0.873938
0.925738
1.0504
1.10182
1.17741
1.23625
1.25284
1.26773
1.21373
1.1904
1.11571
1.13644
1.03595
0.923186
0.959231
0.867187
0.792048
0.180782
0.210131
0.264446
0.315474
0.302556
0.426052
0.361628
0.416969
0.438848
0.396533
0.363366
0.417476
0.421201
0.47692
0.355791
0.36609
0.343027
0.351328
0.338117
0.239886
3.19236
3.43503
3.5519
3.94193
4.28158
4.74188
5.13804
5.46627
5.83234
5.9558
5.96759
5.89865
5.74724
5.454
5.11333
4.82369
4.52207
4.24293
4.04742
3.96756
2.80278
2.87626
3.10797
3.38614
3.66938
4.04042
4.41123
4.61066
4.9684
5.08332
5.14737
5.03248
4.86938
4.75173
4.41407
4.16997
3.86202
3.62357
3.47642
3.38242
2.31484
2.40225
2.5973
2.79689
3.09423
3.37697
3.61402
3.86365
4.16832
4.19876
4.29853
4.1822
4.07066
3.95845
3.65123
3.47717
3.2385
3.02498
2.87115
2.77154
1.84043
1.96854
2.06194
2.25483
2.42683
2.6729
2.96772
3.17515
3.25855
3.48188
3.42801
3.4292
3.2775
3.13569
2.91462
2.83747
2.56491
2.36148
2.33096
2.22922
1.42114
1.44396
1.5935
1.68353
1.89848
2.08676
2.30408
2.46108
2.5084
2.638
2.62882
2.6107
2.62555
2.38573
2.22845
2.13044
2.00718
1.90938
1.75952
1.6515
0.971398
1.09038
1.13531
1.18313
1.32832
1.47963
1.60435
1.68354
1.82589
1.88308
1.90088
1.88769
1.80569
1.73727
1.62658
1.45227
1.37299
1.35293
1.25438
1.27709
0.664855
0.5889
0.67855
0.736847
0.795097
0.911878
0.956064
1.073
1.06737
1.11279
1.08733
1.14004
1.10681
0.999553
0.994839
0.926101
0.839066
0.784784
0.763531
0.708067
0.18599
0.241847
0.197769
0.227037
0.203891
0.287057
0.366659
0.415155
0.356407
0.456717
0.396303
0.391882
0.313286
0.339171
0.274434
0.274203
0.250706
0.270672
0.261867
0.231595
2.38734
2.54955
2.7347
2.99665
3.37403
3.74584
4.18679
4.45399
4.76794
4.94413
4.97355
4.86838
4.6953
4.4087
4.08552
3.76482
3.58266
3.35035
3.13561
3.0751
2.11204
2.22846
2.34411
2.59217
2.89704
3.21048
3.56156
3.88661
4.05672
4.16788
4.1582
4.09575
3.94363
3.71795
3.43675
3.2233
3.03218
2.81899
2.67744
2.67889
1.74944
1.88643
1.91457
2.13
2.35272
2.67298
2.96567
3.17245
3.32936
3.50753
3.47155
3.4442
3.36775
3.09004
2.89019
2.70615
2.49702
2.30971
2.24953
2.16806
1.3848
1.46667
1.56323
1.74668
1.95378
2.11278
2.34277
2.57151
2.77749
2.88746
2.79403
2.84081
2.75251
2.5405
2.34552
2.21358
2.00807
1.93281
1.79977
1.71253
1.09081
1.163
1.16756
1.284
1.57118
1.68498
1.86518
1.95765
2.16477
2.18004
2.26364
2.16903
2.09218
1.97779
1.85955
1.68477
1.52089
1.43943
1.38378
1.39542
0.77723
0.769213
0.868388
0.935155
1.06462
1.17873
1.31901
1.3752
1.52193
1.63971
1.53475
1.48342
1.45638
1.45297
1.27452
1.1646
1.05676
1.03779
1.02308
0.950137
0.521093
0.410456
0.557189
0.61335
0.612838
0.757598
0.814159
0.799301
0.87378
0.932237
0.945931
0.937344
0.928267
0.876256
0.693402
0.749862
0.610552
0.654566
0.535041
0.597704
0.147212
0.177756
0.131681
0.19936
0.26594
0.268578
0.293449
0.259948
0.245797
0.244763
0.303826
0.236637
0.311403
0.263886
0.28175
0.24795
0.202266
0.160663
0.218334
0.138998
1.64204
1.67896
1.87073
2.13531
2.37875
2.70155
3.0076
3.32499
3.63388
3.76998
3.79777
3.74402
3.60079
3.32587
3.05818
2.7896
2.56784
2.27694
2.22245
2.11744
1.35485
1.39326
1.52675
1.78534
2.04539
2.30883
2.53031
2.88026
3.09114
3.16938
3.24894
3.15436
2.98342
2.84217
2.64993
2.27586
2.15757
2.02223
1.83295
1.87071
1.11257
1.15654
1.30269
1.5151
1.65635
1.88137
2.17398
2.45123
2.56883
2.65366
2.6786
2.61579
2.53197
2.36995
2.14878
1.93038
1.77234
1.6399
1.51334
1.51481
0.896333
1.00102
1.03266
1.20313
1.39291
1.54024
1.67783
1.92028
2.05418
2.16716
2.14777
2.10055
2.05157
1.89418
1.7411
1.57816
1.42615
1.35699
1.26426
1.29072
0.6863
0.679891
0.803143
0.963528
1.0346
1.18575
1.45507
1.45418
1.57609
1.69774
1.68296
1.66175
1.57428
1.47053
1.34825
1.17919
1.14481
1.07251
0.927201
1.00297
0.4708
0.558019
0.504083
0.654496
0.751009
0.832273
0.906408
1.00234
1.14823
1.17978
1.22874
1.11956
1.11818
1.06122
0.919671
0.877437
0.830706
0.704484
0.665723
0.669395
0.266295
0.287989
0.371057
0.326397
0.426103
0.487365
0.50826
0.631764
0.63054
0.683468
0.653188
0.755084
0.6228
0.608896
0.518152
0.542908
0.472112
0.465424
0.409373
0.421517
0.16481
0.0934506
0.0977175
0.158485
0.131498
0.182344
0.190556
0.161204
0.118159
0.274398
0.257533
0.20066
0.221432
0.239673
0.188949
0.213904
0.0890362
0.126771
0.161905
0.135237
0.811618
0.894697
0.932951
1.26218
1.46901
1.71923
1.91516
2.23279
2.47547
2.65226
2.60047
2.55397
2.44478
2.27565
1.97114
1.77985
1.51286
1.41776
1.35453
1.25589
0.745469
0.776179
0.797987
0.968657
1.19813
1.4774
1.68404
1.90189
2.0547
2.15325
2.19448
2.12414
1.96843
1.85325
1.71416
1.49681
1.28763
1.21307
1.19946
1.05232
0.647715
0.619667
0.615709
0.781133
0.947477
1.17992
1.36448
1.58336
1.70717
1.83018
1.90029
1.86152
1.70952
1.52095
1.41187
1.14123
1.07904
0.971814
0.873976
0.885524
0.446748
0.419098
0.453409
0.689607
0.778623
1.10337
1.18221
1.29894
1.34804
1.49877
1.51061
1.51379
1.41084
1.24904
1.11717
0.950179
0.883869
0.733497
0.739024
0.70507
0.359632
0.321428
0.357638
0.456921
0.585793
0.754673
0.871862
0.942745
1.06439
1.13821
1.12175
1.16172
1.09046
1.01525
0.888768
0.701588
0.645839
0.616271
0.532332
0.569599
0.336391
0.272419
0.365538
0.352101
0.469643
0.4884
0.668859
0.726692
0.74969
0.820896
0.809891
0.799878
0.816591
0.678404
0.601711
0.530341
0.470078
0.454844
0.410481
0.436973
0.0527561
0.183627
0.165676
0.251613
0.286842
0.29141
0.355761
0.367057
0.434242
0.59559
0.450553
0.419114
0.405686
0.320708
0.329929
0.257961
0.31127
0.267326
0.296816
0.280833
0.0665728
0.064846
0.0330931
0.0846082
0.0888722
0.0681408
0.150725
0.124273
0.151867
0.153398
0.0909329
0.103316
0.120873
0.181288
0.160485
0.120233
0.0954356
0.0711943
0.0666599
0.0392665
0.113113
0.110705
0.123028
0.31272
0.572359
0.7298
0.99924
1.24922
1.43532
1.54211
1.56548
1.47571
1.36045
1.19073
1.05268
0.767469
0.585357
0.453344
0.424317
0.510173
0.102025
0.127266
0.157687
0.268389
0.436302
0.545523
0.75409
1.01523
1.22931
1.13673
1.25752
1.21278
1.09526
0.945825
0.844705
0.571253
0.395843
0.414933
0.398377
0.406463
0.0122396
-0.00265666
0.0103539
0.193195
0.277077
0.474952
0.688161
0.861085
1.04293
0.999382
1.10364
0.986114
0.960747
0.750952
0.675933
0.506313
0.332587
0.288345
0.215891
0.307897
-0.0336602
-0.0230365
0.0405852
0.115641
0.239328
0.291007
0.496373
0.631557
0.718383
0.861859
0.836087
0.810434
0.746709
0.644077
0.486502
0.334829
0.263209
0.169776
0.263552
0.1354
0.00839788
0.0156776
0.0805698
0.116537
0.243699
0.309531
0.436163
0.534237
0.592798
0.64353
0.646684
0.606177
0.5594
0.504885
0.410515
0.306854
0.233208
0.191029
0.126621
0.17121
0.0580945
-0.0309145
0.0253207
0.0814495
0.119597
0.158407
0.297567
0.290405
0.375237
0.440917
0.490794
0.417464
0.433546
0.310567
0.265565
0.193633
0.180321
0.0986551
0.0481223
0.080236
0.0160369
-0.0577956
-0.0024684
0.0620748
0.0320573
0.138821
0.138339
0.126319
0.214103
0.29685
0.22098
0.319788
0.295101
0.161661
0.176945
0.142897
0.071269
0.0140095
0.0290111
0.108458
-0.0449527
0.0298249
0.0572712
-0.00373549
-0.0175282
0.0163126
0.0912113
0.101198
0.00650729
0.0857632
0.0755253
0.122499
0.124322
0.1271
0.0384452
0.0388726
0.0561256
0.0459751
-0.0389674
0.00364205
-0.557245
-0.550542
-0.564659
-0.404413
-0.293005
-0.124946
0.106293
0.269171
0.35446
0.489088
0.434089
0.488774
0.335976
0.127862
0.0279011
-0.142212
-0.271919
-0.338112
-0.345371
-0.226188
-0.56206
-0.466691
-0.548988
-0.453127
-0.321091
-0.215439
-0.0319465
0.170138
0.269455
0.414265
0.39401
0.356053
0.243727
0.0375484
0.0153433
-0.0952731
-0.238716
-0.270409
-0.209526
-0.275175
-0.385211
-0.577643
-0.451259
-0.384132
-0.299071
-0.260079
-0.00286199
0.119798
0.250611
0.24078
0.275728
0.261398
0.192752
0.0213039
-0.102935
-0.204925
-0.217143
-0.340531
-0.326491
-0.261283
-0.363116
-0.422585
-0.378481
-0.311822
-0.249572
-0.218521
-0.0288854
0.0731334
0.208186
0.182684
0.131379
0.171384
0.13078
0.028005
-0.107778
-0.147082
-0.237627
-0.224037
-0.241771
-0.261933
-0.21034
-0.28788
-0.294815
-0.287227
-0.260924
-0.125771
-0.0776197
-0.00682135
0.0759321
0.142829
0.154363
0.0979713
0.117776
0.0203948
-0.0274042
-0.127187
-0.204655
-0.265424
-0.183889
-0.130858
-0.243261
-0.232165
-0.247776
-0.1683
-0.150078
-0.0451466
-0.0206163
-0.000352391
0.0967728
0.0476059
0.0634344
0.0458325
0.0480708
-0.0491899
-0.0364358
-0.0824039
-0.0956468
-0.181327
-0.11626
-0.122039
-0.118764
-0.07428
-0.163587
-0.126777
-0.195892
-0.0938906
-0.00489497
0.038631
0.00464512
0.0853594
0.0565798
0.00515838
0.0302643
-0.000454195
-0.091995
-0.0884296
-0.133316
-0.0870785
-0.00380222
-0.0694183
-0.0325569
-0.112654
0.00884717
-0.00045778
-0.0593859
0.0179554
-0.00618513
0.000462896
0.0397059
0.013521
0.0449213
0.0179291
0.00847722
-0.0696447
0.013638
-0.0371639
0.0169973
-0.0309957
-0.0535651
-0.0577176
-1.05292
-1.15888
-1.18221
-1.15046
-1.11808
-0.963275
-0.823164
-0.678876
-0.518093
-0.409673
-0.416386
-0.538642
-0.647033
-0.702703
-0.90816
-0.990116
-1.05974
-1.05508
-1.0141
-0.87821
-0.9692
-0.985632
-1.0485
-1.02221
-0.942801
-0.930506
-0.711427
-0.620926
-0.495183
-0.4657
-0.46614
-0.522706
-0.595852
-0.718631
-0.830771
-0.834004
-0.94207
-0.890413
-0.812986
-0.839953
-0.870384
-0.920529
-0.969793
-0.925271
-0.876078
-0.71557
-0.627277
-0.608543
-0.44593
-0.407085
-0.427641
-0.5109
-0.464606
-0.615625
-0.706049
-0.727605
-0.783319
-0.865137
-0.766424
-0.694235
-0.682058
-0.708567
-0.779938
-0.775961
-0.756984
-0.712508
-0.592818
-0.457122
-0.427073
-0.399208
-0.364388
-0.390163
-0.395023
-0.477744
-0.622236
-0.616276
-0.697233
-0.669552
-0.676448
-0.716503
-0.522726
-0.521932
-0.653364
-0.608964
-0.511133
-0.58501
-0.449757
-0.45769
-0.263227
-0.346508
-0.329532
-0.368648
-0.286186
-0.408384
-0.491742
-0.494473
-0.521482
-0.529167
-0.565921
-0.535113
-0.415949
-0.417854
-0.412535
-0.423475
-0.369562
-0.36116
-0.312968
-0.306569
-0.226481
-0.242071
-0.151977
-0.180985
-0.282196
-0.327938
-0.39843
-0.381491
-0.455715
-0.364224
-0.372667
-0.374053
-0.253153
-0.257693
-0.233527
-0.201207
-0.220934
-0.237306
-0.230722
-0.18352
-0.127268
-0.108167
-0.148241
-0.153534
-0.180613
-0.180202
-0.275812
-0.181165
-0.216276
-0.284531
-0.229534
-0.231542
-0.0526449
-0.0264997
-0.0857377
-0.109068
-0.0679193
-0.0820393
-0.0532442
-0.0684838
0.00490489
-0.0148714
-0.0383323
-0.0215847
-0.0439759
-0.0627559
-0.0261121
-0.0530612
-0.117971
-0.0668166
-0.117912
-0.0418424
-1.48824
-1.61702
-1.73661
-1.70133
-1.68654
-1.67572
-1.52018
-1.42815
-1.38379
-1.2984
-1.33911
-1.31432
-1.43575
-1.52391
-1.57067
-1.66243
-1.65994
-1.70171
-1.61303
-1.42866
-1.2521
-1.41546
-1.52014
-1.52908
-1.56745
-1.53843
-1.45722
-1.26689
-1.24198
-1.20465
-1.1539
-1.24904
-1.2903
-1.35681
-1.39875
-1.45579
-1.4779
-1.52403
-1.35814
-1.32028
-1.21147
-1.22438
-1.35252
-1.37579
-1.38387
-1.31046
-1.24165
-1.14598
-1.11387
-1.07884
-1.03655
-1.05171
-1.09323
-1.23802
-1.3183
-1.33648
-1.32924
-1.29414
-1.21295
-1.15268
-0.925905
-1.02744
-1.05799
-1.08882
-1.05386
-1.06764
-1.05776
-0.895501
-0.971972
-0.933697
-0.807029
-0.872542
-0.972792
-0.948319
-1.08914
-1.11628
-1.08833
-1.08134
-1.02322
-0.884667
-0.787965
-0.762598
-0.953082
-0.880306
-0.814059
-0.847125
-0.870946
-0.735745
-0.719775
-0.662105
-0.679386
-0.675768
-0.739252
-0.696381
-0.828048
-0.787619
-0.890042
-0.794557
-0.809946
-0.647648
-0.547266
-0.652191
-0.587893
-0.674576
-0.644248
-0.61256
-0.514014
-0.525727
-0.562672
-0.522566
-0.509438
-0.512774
-0.578238
-0.622807
-0.599433
-0.626385
-0.638827
-0.576302
-0.484494
-0.548474
-0.348383
-0.410127
-0.305489
-0.380698
-0.377599
-0.321179
-0.326125
-0.293298
-0.374093
-0.348818
-0.307813
-0.279452
-0.380287
-0.370589
-0.325551
-0.380425
-0.315527
-0.335982
-0.340975
-0.338233
-0.0868489
-0.153041
-0.0956752
-0.154395
-0.0654613
-0.109985
-0.156798
-0.11419
-0.0757964
-0.071998
-0.11871
-0.0726713
-0.133893
-0.153283
-0.128327
-0.131645
-0.134412
-0.0535646
-0.0917828
-0.10861
-1.84183
-2.02565
-2.15358
-2.24484
-2.30809
-2.24344
-2.22242
-2.16588
-2.0692
-2.08293
-2.07511
-2.12326
-2.1208
-2.29457
-2.22494
-2.36319
-2.32942
-2.18291
-2.07691
-1.88251
-1.60599
-1.74955
-1.88778
-1.98429
-2.03927
-1.96602
-1.97401
-1.92555
-1.89794
-1.85738
-1.85288
-1.7932
-1.86754
-2.01826
-2.02115
-2.08133
-1.96457
-1.92011
-1.77543
-1.66403
-1.39415
-1.52262
-1.62893
-1.6851
-1.75773
-1.69635
-1.65473
-1.58321
-1.60947
-1.5568
-1.55346
-1.52595
-1.61932
-1.71924
-1.77262
-1.68565
-1.71369
-1.68414
-1.56091
-1.38333
-1.15932
-1.31336
-1.3381
-1.397
-1.42296
-1.48032
-1.39292
-1.29115
-1.3228
-1.27252
-1.32223
-1.31647
-1.35989
-1.40012
-1.49397
-1.50879
-1.46905
-1.34422
-1.24129
-1.1975
-0.916646
-0.950214
-1.08051
-1.10883
-1.11401
-1.14244
-1.07147
-1.09202
-1.0773
-0.981468
-1.02499
-1.0469
-1.06693
-1.14019
-1.11708
-1.10149
-1.09377
-1.05833
-0.974671
-0.859044
-0.643758
-0.7672
-0.747286
-0.719761
-0.730451
-0.783766
-0.785818
-0.738052
-0.794904
-0.706885
-0.771446
-0.778229
-0.769297
-0.810814
-0.746277
-0.892832
-0.841659
-0.782485
-0.735314
-0.647863
-0.327376
-0.442888
-0.548428
-0.450915
-0.522749
-0.463684
-0.483919
-0.466829
-0.493256
-0.44758
-0.454478
-0.446191
-0.472229
-0.535432
-0.489188
-0.469265
-0.502527
-0.452068
-0.431006
-0.396334
-0.069397
-0.111063
-0.145531
-0.141852
-0.132407
-0.145617
-0.136671
-0.112438
-0.128604
-0.1707
-0.129311
-0.147735
-0.144595
-0.163913
-0.173789
-0.206782
-0.151625
-0.116337
-0.181607
-0.137177
-2.07074
-2.33428
-2.54889
-2.65246
-2.72748
-2.75585
-2.69895
-2.70898
-2.7504
-2.70922
-2.66021
-2.74108
-2.75319
-2.77811
-2.76711
-2.8382
-2.75429
-2.67089
-2.35635
-2.14493
-1.73941
-1.97503
-2.17801
-2.28051
-2.39086
-2.43618
-2.45138
-2.44053
-2.37284
-2.38674
-2.33859
-2.40412
-2.4294
-2.40011
-2.52698
-2.40706
-2.39802
-2.30855
-2.12134
-1.98453
-1.50869
-1.69566
-1.85061
-1.98819
-2.06422
-2.05287
-2.0779
-2.04525
-2.00681
-2.04119
-2.03404
-2.06437
-2.1106
-2.1703
-2.15065
-2.12875
-2.06626
-1.9933
-1.78024
-1.66154
-1.30362
-1.4112
-1.51424
-1.57162
-1.66903
-1.72011
-1.66093
-1.67005
-1.6679
-1.64369
-1.62618
-1.71421
-1.70848
-1.72419
-1.67642
-1.68637
-1.67417
-1.59901
-1.51989
-1.35931
-1.02548
-1.09893
-1.20437
-1.37392
-1.30668
-1.36115
-1.26857
-1.37922
-1.29313
-1.33663
-1.3464
-1.35882
-1.26867
-1.35632
-1.37355
-1.28509
-1.3198
-1.27492
-1.10346
-1.10997
-0.738866
-0.756068
-0.850838
-0.94483
-0.901985
-1.01953
-1.00835
-0.933108
-1.0121
-0.984262
-0.907766
-0.971705
-0.940546
-0.955834
-1.02676
-1.04771
-0.993592
-0.869159
-0.80233
-0.781632
-0.422076
-0.434151
-0.535015
-0.535432
-0.622921
-0.621574
-0.583567
-0.507653
-0.588272
-0.548849
-0.521906
-0.592932
-0.540332
-0.621672
-0.577516
-0.621535
-0.562463
-0.557227
-0.445678
-0.415559
-0.199593
-0.236586
-0.184954
-0.239366
-0.19837
-0.260663
-0.224475
-0.207874
-0.164373
-0.167652
-0.200847
-0.209154
-0.201594
-0.190486
-0.225238
-0.284193
-0.186309
-0.184601
-0.197415
-0.165926
-2.17685
-2.36581
-2.71458
-2.84714
-3.01299
-3.15728
-3.12736
-3.17059
-3.16477
-3.14702
-3.16128
-3.14219
-3.29976
-3.25146
-3.21983
-3.19817
-3.0262
-2.87209
-2.67484
-2.39628
-1.89346
-2.07382
-2.41565
-2.59796
-2.62339
-2.77414
-2.80169
-2.76576
-2.74984
-2.84277
-2.83357
-2.89935
-2.8366
-2.82995
-2.8992
-2.85706
-2.69543
-2.5376
-2.33825
-2.07348
-1.66457
-1.80689
-2.02287
-2.10915
-2.24024
-2.36083
-2.34012
-2.37519
-2.39068
-2.3767
-2.36208
-2.4196
-2.38342
-2.44193
-2.49529
-2.39133
-2.29779
-2.15592
-2.02284
-1.77219
-1.33018
-1.47945
-1.64516
-1.75004
-1.83453
-1.92598
-1.92379
-1.9673
-1.96587
-1.92817
-1.95224
-1.97087
-2.01607
-2.06081
-2.0132
-1.94501
-1.87677
-1.79128
-1.64474
-1.53587
-0.985759
-1.1686
-1.24732
-1.34868
-1.49413
-1.46309
-1.58758
-1.55563
-1.54853
-1.57012
-1.55056
-1.57392
-1.58572
-1.53012
-1.65989
-1.54563
-1.47835
-1.43453
-1.26631
-1.15236
-0.624473
-0.810189
-0.938421
-0.98442
-1.11743
-1.05864
-1.03212
-1.15475
-1.12999
-1.14374
-1.1085
-1.06788
-1.12835
-1.09005
-1.17597
-1.12717
-1.0488
-1.05183
-0.82832
-0.782011
-0.435481
-0.424606
-0.548626
-0.616427
-0.611288
-0.625011
-0.634873
-0.6219
-0.666811
-0.634778
-0.702001
-0.665091
-0.667434
-0.684241
-0.684118
-0.704425
-0.651193
-0.561389
-0.581567
-0.476487
-0.123367
-0.171636
-0.125405
-0.196843
-0.239973
-0.276912
-0.212401
-0.154392
-0.211356
-0.192188
-0.330918
-0.240053
-0.247076
-0.300541
-0.235814
-0.219104
-0.219962
-0.178442
-0.107147
-0.200483
-2.08233
-2.44704
-2.672
-2.95579
-3.13629
-3.35124
-3.35884
-3.45536
-3.51806
-3.54038
-3.53068
-3.57991
-3.49659
-3.53621
-3.53272
-3.43579
-3.26893
-3.01215
-2.71954
-2.49044
-1.87085
-2.15037
-2.32485
-2.58868
-2.73654
-2.88304
-3.00606
-3.04065
-2.99896
-3.15281
-3.10525
-3.10986
-3.1199
-3.09999
-3.08063
-2.96633
-2.83998
-2.61475
-2.44292
-2.15415
-1.56312
-1.77587
-1.98233
-2.20396
-2.31535
-2.44271
-2.58858
-2.57843
-2.67959
-2.70391
-2.63935
-2.64078
-2.70897
-2.64818
-2.68688
-2.54158
-2.49674
-2.23217
-2.10768
-1.82862
-1.31975
-1.48475
-1.67577
-1.80944
-1.87834
-2.03378
-2.10113
-2.1365
-2.24525
-2.23194
-2.20051
-2.24766
-2.21905
-2.15436
-2.18729
-2.06738
-2.00576
-1.87897
-1.68902
-1.51078
-1.02255
-1.13092
-1.27968
-1.41467
-1.46175
-1.55951
-1.6143
-1.69305
-1.74133
-1.74704
-1.69747
-1.72284
-1.74218
-1.69816
-1.70903
-1.61179
-1.55673
-1.45449
-1.28817
-1.2094
-0.753636
-0.800662
-0.957022
-1.04779
-1.1316
-1.09489
-1.16947
-1.17117
-1.17632
-1.24077
-1.28361
-1.19493
-1.26872
-1.26761
-1.23302
-1.05781
-1.1316
-1.06674
-0.905515
-0.799292
-0.451906
-0.503781
-0.58516
-0.64769
-0.607195
-0.701381
-0.763861
-0.705909
-0.780967
-0.797522
-0.749965
-0.716511
-0.710186
-0.689166
-0.672326
-0.722941
-0.623172
-0.635071
-0.572377
-0.473562
-0.133
-0.17191
-0.210014
-0.182994
-0.25987
-0.197886
-0.248614
-0.258631
-0.231432
-0.212989
-0.199225
-0.246779
-0.246563
-0.260531
-0.27116
-0.20577
-0.23303
-0.299235
-0.132626
-0.151361
-1.93141
-2.22804
-2.64936
-3.01179
-3.14633
-3.4534
-3.55768
-3.55757
-3.74051
-3.78938
-3.73371
-3.77188
-3.69698
-3.72499
-3.59614
-3.50872
-3.25269
-3.01103
-2.70899
-2.33753
-1.74393
-1.97469
-2.23671
-2.56002
-2.83761
-2.96486
-3.03784
-3.18075
-3.25309
-3.28094
-3.25004
-3.33635
-3.30464
-3.28784
-3.18064
-3.10194
-2.86837
-2.63538
-2.34481
-2.05804
-1.53706
-1.66127
-1.9967
-2.13179
-2.3782
-2.51533
-2.67432
-2.68113
-2.78733
-2.78254
-2.75117
-2.90437
-2.81077
-2.72983
-2.79533
-2.61958
-2.47133
-2.25995
-2.04533
-1.79175
-1.19693
-1.45232
-1.64233
-1.76852
-1.96795
-2.02606
-2.16721
-2.20051
-2.31916
-2.33247
-2.29579
-2.33696
-2.33607
-2.25008
-2.21161
-2.09881
-2.06098
-1.80479
-1.70826
-1.49391
-0.960209
-1.10949
-1.20766
-1.45172
-1.55068
-1.58853
-1.67085
-1.72183
-1.77045
-1.73808
-1.78895
-1.84224
-1.83064
-1.83158
-1.7523
-1.66924
-1.55
-1.39247
-1.28351
-1.21031
-0.680482
-0.7891
-0.930141
-0.977802
-1.10739
-1.18047
-1.18632
-1.23438
-1.27799
-1.19313
-1.30654
-1.25606
-1.2385
-1.23135
-1.21121
-1.1996
-1.11164
-1.01903
-0.983337
-0.776746
-0.392829
-0.508829
-0.503506
-0.539065
-0.644285
-0.734705
-0.705243
-0.768385
-0.790061
-0.746545
-0.809094
-0.82192
-0.755302
-0.710683
-0.786499
-0.767154
-0.702809
-0.616016
-0.549672
-0.509696
-0.124145
-0.186453
-0.14475
-0.195617
-0.184397
-0.213899
-0.185977
-0.259691
-0.212048
-0.242724
-0.217374
-0.319199
-0.204062
-0.289642
-0.273787
-0.216296
-0.259066
-0.175746
-0.154787
-0.17353
-1.62022
-1.98422
-2.38172
-2.82045
-3.03222
-3.33876
-3.53293
-3.58577
-3.72623
-3.77699
-3.79568
-3.80776
-3.78222
-3.68256
-3.61804
-3.44044
-3.23559
-2.91879
-2.54823
-2.15868
-1.3854
-1.75103
-2.06851
-2.48223
-2.6845
-2.87818
-3.02737
-3.14524
-3.24831
-3.31729
-3.32815
-3.33239
-3.35732
-3.21028
-3.13745
-2.99105
-2.81267
-2.52103
-2.27153
-1.87774
-1.19523
-1.43043
-1.74906
-2.08086
-2.26502
-2.48156
-2.55792
-2.66591
-2.78555
-2.7217
-2.87295
-2.84062
-2.84812
-2.76431
-2.69451
-2.51102
-2.40204
-2.10537
-1.88424
-1.64695
-1.03581
-1.23988
-1.40415
-1.75934
-1.86732
-2.02797
-2.10654
-2.19933
-2.22921
-2.20135
-2.30815
-2.36071
-2.32968
-2.27601
-2.2365
-2.00561
-2.0389
-1.79861
-1.52484
-1.3465
-0.812576
-0.957052
-1.17141
-1.33555
-1.40872
-1.59701
-1.64527
-1.67126
-1.73297
-1.82597
-1.85529
-1.77799
-1.78848
-1.78269
-1.78578
-1.62649
-1.59872
-1.39173
-1.20325
-1.04975
-0.586963
-0.743877
-0.835638
-0.963464
-1.07308
-1.14632
-1.18811
-1.2545
-1.2261
-1.23573
-1.32125
-1.35448
-1.36996
-1.2456
-1.29946
-1.16739
-1.07615
-1.003
-0.791155
-0.753091
-0.393502
-0.417501
-0.511677
-0.555901
-0.613171
-0.724552
-0.731479
-0.71248
-0.78269
-0.757151
-0.800362
-0.795669
-0.807528
-0.769974
-0.737282
-0.637736
-0.713415
-0.597051
-0.516084
-0.449636
-0.132326
-0.157246
-0.136761
-0.185711
-0.213868
-0.244237
-0.203722
-0.192206
-0.281886
-0.282806
-0.370366
-0.271204
-0.280799
-0.192644
-0.227828
-0.24367
-0.173973
-0.170215
-0.194824
-0.152834
-1.07227
-1.57417
-2.11863
-2.45227
-2.81383
-3.08789
-3.2761
-3.49148
-3.5537
-3.59389
-3.71086
-3.66037
-3.58157
-3.54193
-3.40745
-3.22712
-3.01708
-2.58059
-2.26385
-1.86888
-1.09721
-1.42743
-1.82903
-2.19191
-2.4716
-2.65107
-2.86976
-2.95576
-3.09447
-3.15639
-3.25347
-3.21075
-3.21109
-3.13483
-2.98869
-2.82664
-2.58043
-2.24836
-1.954
-1.60295
-0.909801
-1.21927
-1.54542
-1.85592
-2.02956
-2.32403
-2.46706
-2.52722
-2.62556
-2.65114
-2.70232
-2.70947
-2.69719
-2.66121
-2.53914
-2.4399
-2.21322
-1.94298
-1.62002
-1.31392
-0.730062
-1.06663
-1.25101
-1.47726
-1.63456
-1.84625
-2.07033
-2.05621
-2.14292
-2.21605
-2.28833
-2.18818
-2.24671
-2.15466
-2.04268
-1.94901
-1.79431
-1.54462
-1.36596
-1.11805
-0.572422
-0.769981
-1.01325
-1.26881
-1.3694
-1.43819
-1.61103
-1.64781
-1.73425
-1.71856
-1.77139
-1.76252
-1.7589
-1.70108
-1.65509
-1.55053
-1.37147
-1.28058
-1.07299
-0.883227
-0.367658
-0.555422
-0.732105
-0.816169
-0.928689
-1.12032
-1.12409
-1.23633
-1.23353
-1.21033
-1.26566
-1.25054
-1.23785
-1.20523
-1.23775
-1.03017
-1.01369
-0.933693
-0.727363
-0.645988
-0.25002
-0.266582
-0.350762
-0.492264
-0.531701
-0.654496
-0.665255
-0.685744
-0.763371
-0.655299
-0.759957
-0.737618
-0.751693
-0.763559
-0.666718
-0.647116
-0.68021
-0.528444
-0.502328
-0.407018
-0.0951752
-0.0805316
-0.128843
-0.21145
-0.163926
-0.240926
-0.270747
-0.266012
-0.24973
-0.24715
-0.228429
-0.255184
-0.216117
-0.257024
-0.242351
-0.278187
-0.19947
-0.19395
-0.124505
-0.154599
-0.557528
-1.11136
-1.58612
-2.04604
-2.39547
-2.68789
-2.9113
-3.12035
-3.25374
-3.34971
-3.42782
-3.40833
-3.3575
-3.23652
-3.08553
-2.84117
-2.57612
-2.14444
-1.80755
-1.35507
-0.559636
-0.980357
-1.39123
-1.73839
-2.12587
-2.41419
-2.5533
-2.77633
-2.87963
-2.89807
-2.95928
-3.0169
-2.90991
-2.82072
-2.72348
-2.54465
-2.30519
-1.88993
-1.52695
-1.20837
-0.492234
-0.823976
-1.20404
-1.49853
-1.74634
-1.99978
-2.20758
-2.30349
-2.38554
-2.50544
-2.50644
-2.55181
-2.54542
-2.47047
-2.27452
-2.12842
-1.91669
-1.60986
-1.27623
-1.02279
-0.367665
-0.635554
-0.939716
-1.28164
-1.40716
-1.60366
-1.77065
-1.86011
-2.01964
-2.08896
-2.05954
-2.08209
-2.13771
-1.97092
-1.95636
-1.82443
-1.59351
-1.31733
-1.04832
-0.776704
-0.287327
-0.5146
-0.704221
-0.977471
-1.18151
-1.25534
-1.3736
-1.45387
-1.55584
-1.685
-1.64631
-1.59022
-1.5767
-1.54507
-1.44666
-1.37834
-1.24459
-0.938743
-0.76085
-0.666916
-0.223797
-0.358449
-0.561841
-0.68814
-0.768998
-0.954672
-0.987939
-1.06542
-1.09181
-1.11565
-1.18417
-1.19727
-1.23066
-1.14227
-1.01746
-0.946535
-0.936145
-0.798948
-0.538392
-0.45128
-0.0680258
-0.20879
-0.326715
-0.455305
-0.545894
-0.53575
-0.558554
-0.627927
-0.647213
-0.654969
-0.732079
-0.685266
-0.709598
-0.640314
-0.603871
-0.588753
-0.548964
-0.436841
-0.354235
-0.287206
0.00767194
-0.138703
-0.111511
-0.12006
-0.143234
-0.199106
-0.205513
-0.181769
-0.240704
-0.203715
-0.228025
-0.264982
-0.23073
-0.253889
-0.140153
-0.226967
-0.144867
-0.224748
-0.167694
-0.122428
0.170991
-0.381373
-0.935395
-1.39752
-1.82916
-2.23966
-2.44569
-2.72221
-2.88283
-2.90515
-3.02058
-2.99307
-2.91763
-2.84664
-2.61264
-2.41981
-2.00277
-1.58834
-1.23734
-0.712788
0.113701
-0.369441
-0.822171
-1.30272
-1.63828
-1.90883
-2.21282
-2.27258
-2.57909
-2.56485
-2.65673
-2.57913
-2.53397
-2.53112
-2.29755
-2.19685
-1.75498
-1.40404
-1.09033
-0.659957
0.00438744
-0.262131
-0.707424
-1.08282
-1.43563
-1.60438
-1.88096
-2.04457
-2.10576
-2.18392
-2.22637
-2.19239
-2.26221
-2.04669
-1.97606
-1.79412
-1.52703
-1.20181
-0.828673
-0.482159
0.0503791
-0.292783
-0.492055
-0.922538
-1.11535
-1.28864
-1.54883
-1.61986
-1.66106
-1.7776
-1.7925
-1.90363
-1.85162
-1.70917
-1.73843
-1.42601
-1.32343
-1.02773
-0.711358
-0.421555
-0.0198044
-0.213063
-0.447832
-0.666527
-0.893519
-1.1262
-1.15004
-1.26964
-1.32394
-1.41076
-1.41549
-1.46139
-1.41605
-1.30453
-1.31786
-1.10979
-0.997094
-0.804588
-0.593388
-0.290074
-0.00617384
-0.162573
-0.363612
-0.43252
-0.619851
-0.686585
-0.844315
-0.970939
-0.954633
-1.05964
-0.983631
-0.978261
-0.987341
-0.968237
-0.944857
-0.842827
-0.615455
-0.583298
-0.393257
-0.258267
0.0169643
-0.0682214
-0.230788
-0.291813
-0.406041
-0.453265
-0.450394
-0.494745
-0.606353
-0.602621
-0.642571
-0.576924
-0.569875
-0.532093
-0.575599
-0.480287
-0.41252
-0.366299
-0.210386
-0.15016
-0.025007
0.024452
-0.0223068
-0.105351
-0.111253
-0.118903
-0.108107
-0.154754
-0.182206
-0.16918
-0.213326
-0.205523
-0.161851
-0.193778
-0.0806228
-0.159142
-0.129596
-0.105272
-0.0927649
-0.0305146
0.837306
0.282323
-0.20486
-0.763982
-1.22071
-1.60108
-2.00038
-2.18865
-2.4167
-2.44716
-2.47404
-2.50213
-2.44832
-2.28682
-2.12132
-1.81943
-1.49196
-1.04183
-0.526017
-0.081674
0.692398
0.167368
-0.192062
-0.690341
-1.19884
-1.4555
-1.65104
-1.93364
-2.03966
-2.14903
-2.18138
-2.20135
-2.15652
-2.0163
-1.80165
-1.5634
-1.27506
-0.957786
-0.500045
-0.125074
0.619694
0.166972
-0.24335
-0.619513
-0.892886
-1.23077
-1.48722
-1.60923
-1.78792
-1.7483
-1.85404
-1.86835
-1.86318
-1.70302
-1.55381
-1.38094
-1.16728
-0.781747
-0.435061
-0.0886075
0.453719
0.171957
-0.156573
-0.530681
-0.801639
-1.02614
-1.20976
-1.39474
-1.46795
-1.48281
-1.52091
-1.57834
-1.49076
-1.4097
-1.30543
-1.13715
-0.867753
-0.620087
-0.375129
-0.074187
0.279614
0.118977
-0.162567
-0.444067
-0.655392
-0.777796
-0.987257
-1.05029
-1.10829
-1.14897
-1.21352
-1.18051
-1.15227
-1.11588
-0.951337
-0.949669
-0.677457
-0.57074
-0.326645
-0.115454
0.255145
0.0836081
-0.113848
-0.289237
-0.423409
-0.527407
-0.623023
-0.765632
-0.761394
-0.861316
-0.878309
-0.852241
-0.860134
-0.792285
-0.660095
-0.595999
-0.45104
-0.295691
-0.214606
-0.0229232
0.196046
0.0182483
-0.079421
-0.164744
-0.246998
-0.30815
-0.42593
-0.5006
-0.499001
-0.53345
-0.511717
-0.538189
-0.472498
-0.495884
-0.469096
-0.385526
-0.29361
-0.245077
-0.165344
-0.052938
0.0619048
-0.0853819
-0.00501019
-0.113856
-0.0717951
-0.109253
-0.145602
-0.128244
-0.233588
-0.087103
-0.198454
-0.198629
-0.220121
-0.141878
-0.181329
-0.0939716
-0.106294
-0.0970787
-0.0101127
-0.0217275
1.48433
0.846206
0.314214
-0.257821
-0.654866
-1.10151
-1.34926
-1.65667
-1.87876
-1.9867
-2.01883
-2.043
-2.04925
-1.79127
-1.58183
-1.33637
-0.93692
-0.409562
-0.037853
0.447448
1.20271
0.769453
0.106157
-0.215605
-0.647875
-1.00523
-1.29002
-1.56644
-1.63161
-1.85222
-1.81784
-1.83527
-1.72659
-1.70214
-1.47872
-1.21218
-0.884907
-0.466557
-0.125006
0.330282
0.968758
0.606481
0.15064
-0.315682
-0.552971
-0.917255
-1.09148
-1.33784
-1.50539
-1.54584
-1.56873
-1.60886
-1.52555
-1.45182
-1.34247
-1.03731
-0.802619
-0.457543
-0.0599115
0.298113
0.761819
0.438317
0.0926627
-0.175464
-0.534114
-0.794706
-0.968089
-1.1216
-1.24173
-1.30123
-1.33902
-1.3178
-1.27418
-1.1673
-1.02518
-0.887927
-0.65561
-0.416235
-0.0581256
0.201635
0.532184
0.34179
0.118362
-0.168452
-0.421832
-0.563977
-0.737906
-0.87984
-0.974723
-1.06722
-1.06899
-1.0278
-0.981414
-0.911141
-0.879955
-0.633172
-0.488457
-0.320622
-0.106689
0.155984
0.410459
0.275043
0.0776059
-0.128887
-0.280134
-0.451433
-0.481195
-0.604593
-0.659227
-0.800008
-0.742843
-0.729741
-0.734665
-0.703819
-0.620779
-0.508377
-0.315371
-0.203752
-0.113791
0.0857954
0.174473
0.135632
0.0488303
-0.152567
-0.211771
-0.250512
-0.351767
-0.371933
-0.457004
-0.433574
-0.445296
-0.435924
-0.481526
-0.376381
-0.30803
-0.291984
-0.216943
-0.182155
0.0201946
0.0530054
0.0323069
0.0896857
0.00456027
-0.104711
-0.0775681
-0.0950069
-0.0748761
-0.133922
-0.145361
-0.18002
-0.124637