/*--------------------------------*- C++ -*----------------------------------*\
| =========                 |                                                 |
| \\      /  F ield         | OpenFOAM: The Open Source CFD Toolbox           |
|  \\    /   O peration     | Version:  2212                                  |
|   \\  /    A nd           | Website:  www.openfoam.com                      |
|    \\/     M anipulation  |                                                 |
\*---------------------------------------------------------------------------*/
FoamFile
{
    version     2.0;
    format      ascii;
    arch        "LSB;label=32;scalar=64";
    class       volScalarField;
    location    "0";
    object      T;
}
// * * * * * * * * * * * * * * * * * * * * * * * * * * * * * * * * * * * * * //

dimensions      [0 0 0 1 0 0 0];

internalField   nonuniform List<scalar> 
3200
(
314.668
314.775
315.083
315.301
315.201
315.183
315.33
315.625
315.562
315.369
315.163
315.419
315.266
315.08
315.129
314.981
314.95
314.475
314.357
314.18
312.626
312.776
313.054
313.241
313.113
313.14
313.253
313.475
313.427
313.239
313.048
313.342
313.193
313.003
313.058
312.943
312.908
312.467
312.36
312.261
310.625
310.818
311.063
311.172
311.041
311.109
311.19
311.304
311.344
311.157
310.955
311.294
311.14
310.981
310.941
310.898
310.871
310.519
310.38
310.308
308.688
308.872
309.059
309.128
309.018
309.095
309.128
309.189
309.244
309.084
308.88
309.242
309.094
309.013
308.871
308.867
308.803
308.613
308.44
308.415
306.767
306.922
307.051
307.073
306.994
307.042
307.107
307.142
307.176
307.034
306.85
307.202
307.098
307.063
306.858
306.872
306.856
306.704
306.529
306.542
304.857
304.931
305.063
305.034
304.984
304.988
305.057
305.1
305.105
304.983
304.869
305.152
305.068
305.064
304.861
304.893
304.909
304.805
304.66
304.623
302.917
302.982
303.076
302.987
302.965
302.988
303.02
303.049
303.064
302.996
302.942
303.094
303.018
303.023
302.894
302.94
302.962
302.881
302.846
302.771
300.995
301.008
301.039
300.993
300.991
300.99
301.028
301.018
301.004
300.987
301.002
301.038
301.006
301.003
300.959
300.987
300.993
300.938
300.957
300.925
315.368
315.431
315.767
315.954
315.964
315.927
316.2
316.372
316.196
316.289
316.157
316.456
315.924
315.902
315.922
315.661
315.616
315.247
314.946
314.771
313.283
313.324
313.555
313.785
313.752
313.729
313.941
314.138
313.966
314.069
313.852
314.162
313.702
313.698
313.732
313.502
313.413
313.131
312.853
312.667
311.212
311.222
311.463
311.621
311.609
311.536
311.732
311.913
311.765
311.866
311.657
311.91
311.54
311.476
311.556
311.387
311.263
311.059
310.815
310.621
309.15
309.175
309.384
309.463
309.472
309.394
309.571
309.712
309.589
309.695
309.499
309.663
309.411
309.325
309.409
309.31
309.152
308.961
308.77
308.64
307.143
307.111
307.329
307.336
307.299
307.272
307.456
307.557
307.466
307.496
307.365
307.469
307.333
307.215
307.288
307.204
307.084
306.95
306.751
306.702
305.103
305.091
305.25
305.204
305.171
305.155
305.328
305.408
305.326
305.36
305.21
305.313
305.257
305.168
305.206
305.092
305.03
304.925
304.754
304.76
303.094
303.043
303.166
303.078
303.085
303.058
303.183
303.262
303.209
303.216
303.131
303.202
303.161
303.121
303.144
303.071
303.028
302.935
302.844
302.852
301.035
301.034
301.048
301.026
301.029
301.02
301.067
301.097
301.068
301.078
301.049
301.059
301.05
301.058
301.062
301.033
301.015
300.985
300.959
300.967
316.28
316.441
316.59
316.761
317.178
317.241
317.234
317.332
317.28
317.402
317.288
317.218
316.9
317.085
316.926
316.857
316.577
316.251
315.963
315.856
314.057
314.188
314.311
314.384
314.731
314.866
314.843
314.917
314.811
314.967
314.884
314.827
314.545
314.707
314.573
314.486
314.206
314.015
313.696
313.613
311.821
311.983
312.067
312.109
312.422
312.569
312.499
312.556
312.418
312.613
312.527
312.457
312.228
312.368
312.258
312.138
311.911
311.823
311.479
311.402
309.629
309.764
309.846
309.876
310.098
310.23
310.199
310.258
310.109
310.307
310.163
310.192
309.996
310.063
309.985
309.873
309.695
309.657
309.341
309.228
307.476
307.575
307.66
307.636
307.816
307.948
307.871
307.923
307.82
307.974
307.885
307.913
307.788
307.788
307.768
307.627
307.491
307.518
307.237
307.106
305.338
305.4
305.434
305.438
305.528
305.649
305.637
305.624
305.564
305.663
305.605
305.626
305.505
305.537
305.534
305.406
305.327
305.352
305.154
305.049
303.197
303.253
303.242
303.217
303.303
303.375
303.345
303.366
303.313
303.388
303.388
303.392
303.278
303.344
303.293
303.22
303.204
303.191
303.105
303.053
301.093
301.092
301.086
301.067
301.083
301.122
301.139
301.128
301.112
301.139
301.163
301.133
301.095
301.106
301.114
301.085
301.07
301.042
301.026
301.032
317.265
317.276
317.607
318.011
318.193
318.217
318.308
318.489
318.468
318.438
318.447
318.523
318.236
318.253
318.074
317.908
317.521
317.527
317.248
316.853
314.867
314.884
315.188
315.487
315.651
315.705
315.805
315.935
315.883
315.855
315.894
315.934
315.701
315.721
315.54
315.395
315.06
315.056
314.844
314.486
312.556
312.497
312.791
313.002
313.175
313.19
313.279
313.399
313.36
313.302
313.403
313.398
313.176
313.244
313.059
312.931
312.645
312.694
312.484
312.181
310.261
310.17
310.427
310.561
310.734
310.723
310.776
310.874
310.873
310.809
310.892
310.894
310.687
310.8
310.629
310.499
310.29
310.342
310.134
309.9
307.976
307.883
308.121
308.171
308.329
308.274
308.326
308.412
308.423
308.327
308.455
308.442
308.233
308.358
308.248
308.168
307.977
308.023
307.837
307.703
305.691
305.617
305.782
305.817
305.923
305.896
305.938
305.954
305.987
305.914
305.997
306.011
305.849
305.972
305.862
305.842
305.68
305.769
305.548
305.515
303.408
303.358
303.476
303.477
303.538
303.56
303.56
303.578
303.583
303.542
303.56
303.609
303.519
303.593
303.503
303.514
303.415
303.455
303.291
303.321
301.144
301.117
301.167
301.16
301.178
301.178
301.2
301.194
301.211
301.174
301.179
301.202
301.169
301.188
301.17
301.176
301.134
301.168
301.079
301.129
318.275
318.28
318.778
318.962
319.207
319.35
319.426
319.605
319.56
319.404
319.618
319.488
319.495
319.284
319.021
318.926
318.691
318.514
318.246
317.744
315.783
315.749
316.179
316.344
316.589
316.674
316.721
316.862
316.823
316.694
316.839
316.72
316.786
316.575
316.284
316.258
316.086
315.948
315.695
315.229
313.337
313.253
313.627
313.738
313.987
314.033
314.069
314.213
314.152
314.064
314.119
314.041
314.149
313.893
313.686
313.652
313.561
313.411
313.193
312.764
310.897
310.789
311.125
311.166
311.426
311.448
311.478
311.597
311.534
311.496
311.53
311.449
311.548
311.29
311.153
311.132
311.021
310.874
310.771
310.385
308.515
308.376
308.615
308.667
308.895
308.872
308.873
309
308.947
308.95
308.966
308.898
308.962
308.723
308.661
308.612
308.535
308.405
308.373
307.996
306.024
305.984
306.167
306.171
306.345
306.296
306.304
306.436
306.409
306.374
306.414
306.359
306.392
306.2
306.166
306.111
306.031
305.972
305.972
305.659
303.58
303.614
303.703
303.731
303.812
303.756
303.758
303.859
303.857
303.801
303.842
303.835
303.828
303.706
303.675
303.636
303.617
303.584
303.542
303.38
301.188
301.213
301.232
301.245
301.277
301.255
301.249
301.3
301.298
301.283
301.283
301.268
301.277
301.25
301.24
301.225
301.206
301.19
301.192
301.134
319.42
319.365
319.697
320.126
320.568
320.478
320.685
320.801
320.863
320.768
320.596
320.579
320.726
320.384
320.38
320.166
319.761
319.522
319.489
318.857
316.771
316.716
316.969
317.321
317.734
317.619
317.808
317.888
317.964
317.889
317.756
317.699
317.832
317.496
317.511
317.336
316.985
316.785
316.763
316.211
314.14
314.056
314.344
314.6
314.944
314.845
314.983
315.022
315.127
315.052
314.986
314.893
315.024
314.728
314.694
314.552
314.276
314.063
314.084
313.596
311.518
311.395
311.713
311.861
312.151
312.08
312.184
312.207
312.359
312.241
312.253
312.141
312.217
312.001
311.921
311.797
311.591
311.44
311.442
311.033
308.993
308.81
309.122
309.199
309.38
309.333
309.388
309.456
309.578
309.476
309.526
309.408
309.478
309.275
309.202
309.122
308.96
308.858
308.828
308.552
306.47
306.271
306.502
306.524
306.652
306.626
306.685
306.719
306.868
306.763
306.822
306.711
306.733
306.631
306.546
306.467
306.353
306.289
306.248
306.104
303.875
303.735
303.886
303.931
303.96
303.982
303.995
304.053
304.117
304.053
304.11
304.03
304.014
303.967
303.926
303.901
303.792
303.765
303.731
303.687
301.304
301.24
301.292
301.315
301.331
301.339
301.335
301.373
301.383
301.356
301.382
301.332
301.328
301.312
301.3
301.305
301.26
301.247
301.252
301.222
320.18
320.465
320.917
321.267
321.58
321.607
321.965
322.009
322.113
322.076
321.991
321.723
321.743
321.543
321.372
321.169
320.894
320.664
320.422
320.104
317.481
317.647
318.062
318.3
318.601
318.61
318.904
318.976
319.087
319.035
318.888
318.709
318.721
318.508
318.391
318.19
317.993
317.734
317.542
317.326
314.803
314.86
315.237
315.398
315.64
315.654
315.889
315.959
316.087
316.021
315.836
315.772
315.766
315.542
315.427
315.247
315.176
314.864
314.761
314.561
312.106
312.089
312.443
312.526
312.707
312.727
312.953
312.997
313.121
313.046
312.903
312.87
312.865
312.638
312.511
312.364
312.361
312.106
312.047
311.875
309.396
309.343
309.626
309.695
309.817
309.878
310.046
310.106
310.214
310.134
310.002
309.985
309.982
309.773
309.696
309.608
309.545
309.385
309.37
309.21
306.71
306.664
306.874
306.889
306.996
307.04
307.166
307.257
307.306
307.227
307.115
307.163
307.124
306.961
306.93
306.872
306.793
306.675
306.687
306.567
304.004
303.989
304.133
304.125
304.184
304.236
304.314
304.351
304.378
304.331
304.276
304.289
304.274
304.153
304.178
304.126
304.102
303.986
304.012
303.96
301.323
301.328
301.393
301.395
301.404
301.415
301.472
301.448
301.463
301.442
301.455
301.436
301.433
301.379
301.401
301.364
301.381
301.327
301.345
301.313
321.156
321.612
321.854
322.237
322.674
322.659
322.796
323.037
323.215
323.311
323.065
322.818
322.834
322.778
322.69
322.377
322.09
321.764
321.234
321.091
318.267
318.679
318.864
319.176
319.516
319.513
319.634
319.85
319.984
320.097
319.875
319.665
319.674
319.619
319.521
319.215
319.016
318.687
318.235
318.182
315.407
315.758
315.905
316.14
316.393
316.458
316.531
316.71
316.836
316.935
316.698
316.464
316.548
316.546
316.381
316.122
315.995
315.691
315.363
315.309
312.584
312.85
312.997
313.112
313.354
313.401
313.445
313.604
313.751
313.827
313.571
313.383
313.491
313.528
313.331
313.112
313.003
312.736
312.527
312.449
309.755
310.011
310.124
310.172
310.381
310.393
310.428
310.558
310.643
310.722
310.499
310.377
310.426
310.516
310.342
310.121
310.083
309.888
309.708
309.625
306.974
307.169
307.222
307.257
307.409
307.377
307.439
307.527
307.614
307.65
307.454
307.383
307.369
307.47
307.349
307.199
307.203
307.057
306.924
306.863
304.17
304.302
304.324
304.371
304.452
304.403
304.438
304.471
304.59
304.609
304.459
304.395
304.403
304.434
304.385
304.281
304.307
304.27
304.177
304.121
301.401
301.45
301.458
301.47
301.498
301.457
301.496
301.487
301.538
301.558
301.488
301.458
301.462
301.494
301.464
301.434
301.42
301.428
301.399
301.375
322.17
322.665
322.807
323.14
323.592
323.81
323.906
324.27
324.283
324.418
324.416
324.222
323.954
323.981
323.737
323.552
323.111
322.76
322.261
322.125
319.14
319.589
319.674
319.937
320.357
320.476
320.535
320.928
320.936
321.033
321.026
320.87
320.566
320.635
320.444
320.249
319.885
319.652
319.136
319.039
316.186
316.568
316.581
316.764
317.191
317.221
317.252
317.566
317.629
317.738
317.662
317.524
317.306
317.334
317.224
317.02
316.734
316.553
316.126
315.963
313.265
313.536
313.541
313.65
314.039
314.009
314.031
314.27
314.355
314.477
314.339
314.246
314.101
314.096
314.023
313.844
313.652
313.473
313.113
312.921
310.33
310.509
310.529
310.592
310.917
310.852
310.883
311.018
311.115
311.241
311.112
311.056
310.956
310.942
310.837
310.696
310.575
310.417
310.159
309.992
307.4
307.503
307.505
307.559
307.781
307.746
307.771
307.817
307.917
308.029
307.881
307.878
307.809
307.797
307.697
307.605
307.528
307.398
307.232
307.124
304.442
304.513
304.51
304.533
304.658
304.669
304.69
304.654
304.715
304.779
304.693
304.7
304.667
304.653
304.592
304.513
304.538
304.422
304.35
304.263
301.49
301.517
301.511
301.51
301.571
301.554
301.561
301.547
301.571
301.595
301.567
301.578
301.565
301.561
301.531
301.516
301.51
301.484
301.437
301.418
323.221
323.685
324.061
324.262
324.426
324.679
324.985
325.51
325.318
325.429
325.251
325.222
325.026
325.178
324.747
324.81
324.255
323.915
323.376
322.934
320.076
320.4
320.755
320.914
321.051
321.246
321.503
322.005
321.818
321.888
321.746
321.717
321.507
321.683
321.33
321.322
320.788
320.618
320.103
319.735
316.98
317.172
317.472
317.617
317.724
317.808
318.097
318.505
318.376
318.428
318.283
318.295
318.049
318.222
317.94
317.938
317.461
317.361
316.877
316.574
313.858
313.933
314.234
314.362
314.417
314.447
314.744
315.099
315.027
315.032
314.905
314.908
314.71
314.8
314.62
314.605
314.203
314.154
313.676
313.467
310.766
310.777
311.031
311.141
311.165
311.155
311.43
311.718
311.66
311.682
311.551
311.543
311.415
311.462
311.313
311.346
310.981
310.915
310.578
310.418
307.673
307.675
307.872
307.957
307.919
307.929
308.142
308.337
308.317
308.337
308.224
308.267
308.105
308.145
308.061
308.1
307.812
307.764
307.547
307.427
304.617
304.604
304.729
304.808
304.757
304.741
304.868
304.993
304.977
304.973
304.9
304.955
304.837
304.876
304.827
304.834
304.697
304.647
304.533
304.42
301.565
301.55
301.588
301.616
301.612
301.562
301.627
301.666
301.667
301.672
301.633
301.657
301.633
301.636
301.624
301.635
301.569
301.552
301.505
301.492
324.274
324.729
325.08
325.362
325.653
325.826
326.298
326.592
326.357
326.502
326.359
326.445
326.296
326.275
325.828
325.537
325.202
324.948
324.443
324.213
320.991
321.354
321.628
321.894
322.137
322.274
322.667
322.923
322.688
322.829
322.686
322.752
322.616
322.572
322.237
321.975
321.714
321.462
321.073
320.848
317.676
318.011
318.198
318.446
318.652
318.738
319.099
319.332
319.091
319.213
319.062
319.165
319.011
319.016
318.707
318.478
318.286
318.006
317.758
317.542
314.437
314.67
314.831
315.015
315.22
315.213
315.534
315.801
315.569
315.669
315.493
315.618
315.494
315.55
315.225
315.01
314.885
314.637
314.45
314.287
311.206
311.379
311.515
311.658
311.785
311.795
312.027
312.291
312.072
312.116
312.006
312.116
311.999
312.06
311.795
311.645
311.532
311.311
311.159
311.071
307.999
308.138
308.197
308.314
308.42
308.411
308.568
308.772
308.584
308.643
308.527
308.666
308.542
308.587
308.393
308.333
308.18
308.044
307.926
307.875
304.806
304.868
304.887
304.989
305.041
305.043
305.158
305.255
305.159
305.184
305.132
305.185
305.13
305.14
305.011
305.013
304.921
304.862
304.756
304.707
301.605
301.634
301.625
301.677
301.706
301.682
301.753
301.756
301.736
301.745
301.73
301.725
301.738
301.726
301.674
301.674
301.647
301.639
301.592
301.565
324.908
325.466
325.95
326.454
326.752
326.898
327.206
327.385
327.559
327.443
327.504
327.622
327.379
327.17
326.889
326.575
326.661
325.945
325.546
324.948
321.445
321.972
322.403
322.827
323.001
323.17
323.446
323.623
323.731
323.604
323.664
323.791
323.553
323.39
323.151
322.934
322.965
322.351
322.017
321.46
318.036
318.533
318.86
319.227
319.346
319.461
319.733
319.876
319.968
319.882
319.91
319.979
319.826
319.715
319.459
319.341
319.299
318.799
318.501
318.053
314.685
315.132
315.363
315.666
315.723
315.817
316.082
316.193
316.293
316.164
316.197
316.267
316.132
316.094
315.808
315.744
315.671
315.309
315.03
314.73
311.323
311.707
311.908
312.135
312.183
312.197
312.469
312.57
312.642
312.537
312.546
312.656
312.485
312.491
312.227
312.252
312.112
311.877
311.628
311.445
308.019
308.345
308.509
308.645
308.684
308.671
308.876
308.974
308.985
308.972
308.954
309.035
308.889
308.909
308.704
308.739
308.595
308.473
308.313
308.17
304.789
305.019
305.127
305.197
305.215
305.185
305.316
305.402
305.37
305.414
305.355
305.437
305.323
305.338
305.204
305.27
305.108
305.097
304.993
304.894
301.606
301.68
301.705
301.736
301.734
301.732
301.783
301.817
301.78
301.817
301.789
301.802
301.781
301.811
301.754
301.787
301.71
301.7
301.68
301.64
325.712
326.295
326.762
327.348
327.643
327.843
328.023
328.294
328.535
328.667
328.738
328.62
328.4
328.275
327.805
327.628
327.316
327.017
326.465
325.903
322.201
322.703
323.024
323.59
323.84
324.005
324.142
324.346
324.617
324.709
324.745
324.676
324.466
324.331
323.974
323.793
323.53
323.323
322.816
322.33
318.721
319.161
319.405
319.906
320.07
320.177
320.357
320.537
320.715
320.784
320.803
320.77
320.591
320.457
320.214
320.007
319.807
319.609
319.206
318.769
315.227
315.642
315.857
316.237
316.349
316.427
316.607
316.76
316.847
316.886
316.922
316.961
316.756
316.663
316.464
316.312
316.137
315.96
315.629
315.301
311.801
312.144
312.322
312.646
312.691
312.716
312.884
313.051
313.084
313.071
313.114
313.21
313.015
312.903
312.747
312.672
312.521
312.34
312.128
311.878
308.379
308.687
308.801
309.065
309.055
309.047
309.187
309.315
309.302
309.343
309.348
309.435
309.289
309.192
309.103
309.051
308.922
308.833
308.665
308.463
305.003
305.22
305.27
305.459
305.405
305.421
305.542
305.607
305.55
305.605
305.607
305.682
305.568
305.531
305.477
305.429
305.352
305.294
305.219
305.097
301.682
301.74
301.751
301.811
301.816
301.798
301.867
301.87
301.84
301.894
301.88
301.906
301.873
301.85
301.824
301.821
301.811
301.758
301.754
301.713
326.408
327.04
327.269
328.18
328.448
328.751
329.141
329.068
329.238
329.407
329.595
329.546
329.188
329.026
328.797
328.74
328.342
327.853
327.214
326.718
322.801
323.344
323.484
324.308
324.526
324.821
325.142
325.052
325.218
325.346
325.545
325.498
325.157
324.998
324.812
324.725
324.441
324.039
323.436
323.042
319.211
319.68
319.805
320.457
320.676
320.907
321.184
321.071
321.246
321.351
321.516
321.522
321.172
321.038
320.846
320.743
320.565
320.285
319.762
319.434
315.624
316.04
316.186
316.67
316.822
317.001
317.292
317.171
317.335
317.428
317.584
317.58
317.267
317.063
316.985
316.9
316.776
316.551
316.128
315.845
312.094
312.435
312.613
312.962
313.034
313.127
313.453
313.267
313.462
313.494
313.664
313.624
313.404
313.169
313.173
313.125
313.022
312.846
312.508
312.333
308.594
308.884
309
309.253
309.276
309.363
309.611
309.436
309.646
309.593
309.737
309.706
309.583
309.371
309.435
309.38
309.301
309.203
308.913
308.847
305.141
305.339
305.425
305.547
305.523
305.617
305.751
305.698
305.798
305.721
305.832
305.819
305.777
305.581
305.685
305.649
305.59
305.521
305.347
305.296
301.708
301.795
301.817
301.87
301.827
301.881
301.935
301.914
301.952
301.925
301.947
301.953
301.926
301.877
301.901
301.907
301.86
301.835
301.79
301.77
327.03
327.766
328.324
328.904
329.21
329.731
330.113
330.16
330.342
330.372
330.531
330.602
330.311
329.836
329.575
329.554
329.207
328.494
327.932
327.409
323.295
323.983
324.435
324.943
325.178
325.652
325.979
326.004
326.138
326.146
326.35
326.348
326.128
325.687
325.475
325.512
325.184
324.587
324.071
323.666
319.61
320.255
320.609
321.032
321.225
321.598
321.937
321.895
321.984
322.011
322.208
322.199
322
321.588
321.434
321.496
321.223
320.736
320.277
319.948
316.009
316.534
316.83
317.137
317.324
317.579
317.888
317.833
317.959
317.969
318.105
318.144
317.929
317.572
317.46
317.493
317.267
316.928
316.536
316.251
312.403
312.858
313.094
313.318
313.415
313.657
313.844
313.806
313.976
313.911
314.05
314.105
313.934
313.629
313.548
313.543
313.36
313.163
312.831
312.628
308.801
309.172
309.376
309.503
309.539
309.737
309.857
309.83
310.03
309.943
310.046
310.045
309.939
309.754
309.666
309.671
309.495
309.369
309.192
309.032
305.266
305.492
305.65
305.707
305.705
305.866
305.926
305.86
306.019
305.989
306.008
306.025
305.947
305.86
305.794
305.805
305.679
305.597
305.535
305.455
301.749
301.845
301.908
301.909
301.909
301.987
301.986
301.945
301.995
302.008
302.002
302.018
301.992
301.961
301.942
301.945
301.879
301.87
301.864
301.839
327.702
328.64
329.092
329.65
330.145
330.547
330.662
331.14
331.218
331.283
331.387
331.248
331.1
330.944
330.594
330.317
329.934
329.284
328.854
328.064
323.896
324.692
325.124
325.598
326
326.405
326.468
326.898
326.88
327.007
327.076
326.913
326.777
326.651
326.318
326.134
325.794
325.243
324.873
324.132
320.138
320.837
321.165
321.605
321.908
322.29
322.268
322.713
322.598
322.794
322.815
322.638
322.532
322.428
322.105
322.039
321.688
321.297
320.903
320.318
316.402
317
317.293
317.62
317.819
318.178
318.137
318.581
318.453
318.596
318.613
318.45
318.346
318.286
317.981
318
317.65
317.364
317.039
316.541
312.693
313.21
313.418
313.709
313.795
314.099
314.042
314.446
314.311
314.461
314.456
314.343
314.25
314.222
313.849
313.945
313.692
313.488
313.214
312.852
309.061
309.417
309.581
309.818
309.853
310.075
309.996
310.287
310.222
310.335
310.337
310.22
310.169
310.168
309.855
309.946
309.767
309.616
309.422
309.173
305.447
305.667
305.755
305.884
305.91
306.047
306.002
306.117
306.138
306.211
306.22
306.129
306.105
306.128
305.927
305.954
305.836
305.783
305.653
305.508
301.812
301.909
301.914
301.969
301.966
302.038
302.045
302.029
302.059
302.107
302.077
302.059
302.047
302.049
301.973
302.003
301.943
301.93
301.897
301.837
328.414
329.127
329.985
330.329
330.94
331.16
331.562
331.844
331.831
331.994
331.824
331.931
331.873
331.746
331.519
331.089
330.616
330.142
329.378
328.819
324.509
325.161
325.925
326.219
326.704
326.934
327.195
327.473
327.474
327.569
327.396
327.507
327.429
327.369
327.13
326.835
326.38
326.03
325.322
324.859
320.668
321.237
321.87
322.128
322.517
322.746
322.903
323.193
323.145
323.238
323.053
323.153
323.091
323.113
322.821
322.61
322.197
321.98
321.356
320.941
316.818
317.37
317.863
318.041
318.366
318.615
318.66
318.9
318.88
318.929
318.776
318.853
318.797
318.902
318.551
318.437
318.079
317.977
317.438
317.073
313.057
313.508
313.856
313.968
314.273
314.489
314.415
314.655
314.672
314.65
314.592
314.618
314.616
314.658
314.351
314.323
314.048
313.994
313.554
313.232
309.304
309.673
309.888
309.97
310.203
310.35
310.271
310.426
310.476
310.434
310.401
310.422
310.402
310.454
310.207
310.208
310.019
310
309.676
309.443
305.591
305.83
305.943
305.991
306.096
306.217
306.147
306.253
306.28
306.254
306.222
306.236
306.238
306.265
306.122
306.115
306.047
305.996
305.807
305.686
301.877
301.972
301.999
302.008
302.047
302.088
302.079
302.092
302.098
302.095
302.071
302.08
302.063
302.101
302.068
302.036
302.036
302.01
301.971
301.925
329.051
329.86
330.518
330.927
331.566
331.845
332.18
332.389
332.749
332.567
332.607
332.584
332.475
332.224
332.094
331.733
331.22
330.737
330.222
329.433
325.059
325.791
326.366
326.67
327.267
327.439
327.749
327.964
328.243
328.068
328.124
328.081
327.977
327.822
327.684
327.312
326.917
326.51
326.091
325.398
321.136
321.754
322.203
322.477
322.982
323.13
323.363
323.6
323.799
323.628
323.733
323.666
323.508
323.451
323.31
323.012
322.646
322.363
322.01
321.397
317.219
317.774
318.121
318.327
318.772
318.827
319.034
319.27
319.411
319.266
319.338
319.303
319.141
319.112
318.982
318.805
318.413
318.253
317.948
317.459
313.336
313.824
314.082
314.195
314.63
314.625
314.741
314.98
315.041
314.909
314.978
314.985
314.851
314.821
314.753
314.569
314.266
314.136
313.924
313.534
309.516
309.858
310.077
310.099
310.447
310.409
310.477
310.702
310.705
310.627
310.661
310.67
310.596
310.56
310.548
310.354
310.141
310.059
309.951
309.648
305.711
305.913
306.04
306.04
306.286
306.227
306.289
306.419
306.403
306.377
306.411
306.373
306.353
306.329
306.325
306.223
306.081
306.033
305.963
305.787
301.909
301.967
302.023
302.015
302.128
302.062
302.094
302.152
302.165
302.126
302.146
302.143
302.151
302.115
302.137
302.085
302.032
302.043
301.975
301.935
329.31
330.216
330.769
331.414
332.001
332.455
332.789
332.849
333.123
333.183
333.111
333.166
333.063
332.999
332.714
332.402
331.746
331.314
330.767
329.936
325.295
326.043
326.573
327.086
327.633
328.009
328.296
328.352
328.571
328.607
328.538
328.562
328.462
328.493
328.157
327.922
327.402
327.001
326.515
325.774
321.329
321.95
322.413
322.877
323.326
323.615
323.837
323.916
324.078
324.065
324.059
324.058
323.923
323.985
323.651
323.474
323.115
322.787
322.389
321.683
317.429
317.949
318.302
318.659
319.015
319.27
319.45
319.529
319.655
319.569
319.58
319.641
319.412
319.541
319.267
319.099
318.86
318.567
318.251
317.653
313.549
313.916
314.202
314.511
314.741
314.92
315.064
315.123
315.223
315.161
315.152
315.226
314.998
315.132
314.947
314.75
314.615
314.416
314.179
313.647
309.668
309.9
310.127
310.348
310.54
310.636
310.73
310.815
310.847
310.822
310.8
310.869
310.635
310.81
310.639
310.494
310.415
310.304
310.102
309.734
305.796
305.944
306.1
306.203
306.326
306.357
306.426
306.495
306.457
306.516
306.486
306.536
306.359
306.483
306.384
306.29
306.253
306.229
306.075
305.856
301.92
301.977
302.05
302.09
302.129
302.13
302.147
302.149
302.157
302.189
302.175
302.206
302.119
302.177
302.13
302.11
302.097
302.101
302.051
301.949
329.628
330.612
331.123
331.927
332.349
332.843
333.265
333.152
333.541
333.331
333.459
333.52
333.308
333.145
333.134
332.737
332.271
331.77
331.258
330.376
325.569
326.4
326.865
327.501
327.904
328.333
328.637
328.546
328.91
328.684
328.821
328.919
328.679
328.56
328.544
328.223
327.813
327.396
326.942
326.142
321.566
322.268
322.63
323.189
323.493
323.86
324.082
324.007
324.314
324.137
324.29
324.355
324.123
324.026
324.005
323.737
323.429
323.09
322.675
321.978
317.6
318.172
318.45
318.967
319.155
319.428
319.586
319.559
319.793
319.64
319.817
319.847
319.648
319.59
319.494
319.328
319.148
318.828
318.489
317.912
313.675
314.103
314.305
314.782
314.855
315.073
315.121
315.155
315.312
315.223
315.358
315.353
315.257
315.203
315.11
315.02
314.873
314.673
314.298
313.885
309.72
310.08
310.232
310.552
310.605
310.732
310.764
310.8
310.938
310.813
310.943
310.899
310.877
310.888
310.769
310.761
310.635
310.466
310.148
309.902
305.828
306.08
306.161
306.333
306.382
306.439
306.462
306.483
306.554
306.479
306.564
306.533
306.508
306.512
306.457
306.484
306.384
306.296
306.056
305.919
301.966
302.047
302.067
302.115
302.148
302.156
302.172
302.161
302.189
302.157
302.195
302.185
302.178
302.17
302.155
302.17
302.161
302.102
302.003
301.986
)
;

boundaryField
{
    hotSide
    {
        type            fixedGradient;
        gradient        nonuniform List<scalar> 
400
(
158.611
169.729
180.915
192.119
203.291
214.378
225.327
236.085
246.596
256.81
266.672
276.132
285.14
293.65
301.617
308.999
315.759
321.862
327.276
331.977
161.286
172.744
184.276
195.831
207.358
218.802
230.109
241.222
252.086
262.647
272.85
282.642
291.972
300.792
309.055
316.719
323.743
330.092
335.734
340.642
163.598
175.367
187.217
199.097
210.951
222.724
234.36
245.802
256.993
267.876
278.394
288.495
298.124
307.233
315.772
323.698
330.969
337.549
343.405
348.507
165.557
177.609
189.748
201.921
214.073
226.145
238.082
249.823
261.311
272.488
283.295
293.677
303.58
312.952
321.745
329.911
337.41
344.203
350.255
355.538
167.181
179.484
191.88
204.315
216.731
229.071
241.275
253.285
265.039
276.478
287.544
298.179
308.327
317.937
326.957
335.341
343.045
350.029
356.26
361.706
168.486
181.007
193.626
206.288
218.935
231.508
243.946
256.189
268.176
279.845
291.137
301.993
312.358
322.176
331.396
339.971
347.855
355.01
361.398
366.989
169.488
182.193
195
207.854
220.696
233.465
246.101
258.542
270.725
282.589
294.073
305.118
315.665
325.661
335.052
343.789
351.828
359.128
365.651
371.367
170.203
183.056
196.014
209.023
222.022
234.95
247.746
260.347
272.69
284.712
296.352
307.55
318.246
328.386
337.917
346.788
354.953
362.372
369.006
374.824
170.645
183.608
196.68
209.805
222.922
235.97
248.887
261.609
274.073
286.215
297.973
309.287
320.098
330.348
339.985
348.958
357.22
364.731
371.451
377.348
170.823
183.858
197.006
210.208
223.403
236.531
249.528
262.331
274.876
287.099
298.937
310.33
321.217
331.542
341.251
350.294
358.623
366.196
372.975
378.928
170.743
183.814
196.997
210.235
223.469
236.636
249.673
262.515
275.1
287.363
299.242
310.674
321.601
331.965
341.711
350.79
359.154
366.761
373.572
379.555
170.41
183.475
196.655
209.889
223.12
236.284
249.319
262.16
274.744
287.006
298.885
310.318
321.246
331.611
341.36
350.442
358.809
366.42
373.235
379.223
169.82
182.842
195.977
209.168
222.354
235.474
248.464
261.262
273.804
286.025
297.863
309.257
320.148
330.478
340.194
349.244
357.583
365.167
371.959
377.925
168.969
181.908
194.959
208.065
221.165
234.199
247.104
259.817
272.275
284.414
296.172
307.488
318.303
328.561
338.208
347.194
355.472
363
369.741
375.661
167.847
180.665
193.592
206.572
219.546
232.454
245.232
257.819
270.152
282.168
293.806
305.005
315.708
325.857
335.401
344.289
352.475
359.918
366.58
372.43
166.443
179.101
191.866
204.681
217.488
230.228
242.839
255.26
267.428
279.283
290.762
301.806
312.359
322.365
331.771
340.529
348.593
355.923
362.481
368.236
164.743
177.204
189.767
202.379
214.981
227.514
239.919
252.134
264.099
275.753
287.036
297.89
308.257
318.085
327.322
335.919
343.832
351.02
357.449
363.086
162.733
174.96
187.286
199.656
212.015
224.304
236.464
248.436
260.16
271.577
282.628
293.256
303.405
313.022
322.058
330.464
338.199
345.221
351.497
356.995
160.397
172.356
184.409
196.502
208.581
220.59
232.47
244.163
255.611
266.756
277.541
287.91
297.808
307.185
315.99
324.179
331.709
338.542
344.642
349.982
157.723
169.381
181.127
192.91
204.676
216.37
227.935
239.316
250.455
261.296
271.783
281.861
291.48
300.587
309.136
317.082
324.384
331.004
336.91
342.074
)
;
    }
    coldSide
    {
        type            mixed;
        refValue        uniform 300;
        refGradient     uniform 0;
        valueFraction   uniform 0.991591;
        source          uniform 0;
        value           nonuniform List<scalar> 
400
(
300.008
300.009
300.009
300.01
300.01
300.011
300.011
300.012
300.013
300.013
300.013
300.014
300.014
300.014
300.015
300.015
300.016
300.016
300.016
300.017
300.008
300.009
300.009
300.009
300.01
300.01
300.011
300.012
300.013
300.013
300.014
300.014
300.015
300.015
300.016
300.016
300.017
300.017
300.017
300.017
300.009
300.009