/*--------------------------------*- C++ -*----------------------------------*\
| =========                 |                                                 |
| \\      /  F ield         | OpenFOAM: The Open Source CFD Toolbox           |
|  \\    /   O peration     | Version:  2212                                  |
|   \\  /    A nd           | Website:  www.openfoam.com                      |
|    \\/     M anipulation  |                                                 |
\*---------------------------------------------------------------------------*/
FoamFile
{
    version     2.0;
    format      ascii;
    arch        "LSB;label=32;scalar=64";
    class       volScalarField;
    location    "0";
    object      T;
}
// * * * * * * * * * * * * * * * * * * * * * * * * * * * * * * * * * * * * * //

dimensions      [0 0 0 1 0 0 0];

internalField   nonuniform List<scalar> 
3200
(
340.658
341.559
342.505
343.246
343.795
343.938
344.774
344.836
344.966
344.909
344.827
344.555
343.883
343.622
343.064
342.1
341.369
340.321
339.47
338.51
335.416
336.161
336.988
337.662
338.106
338.225
338.935
338.946
339.15
339.055
339.01
338.79
338.151
337.961
337.506
336.636
336.023
335.105
334.443
333.536
330.076
330.691
331.466
331.995
332.36
332.434
333.028
332.99
333.265
333.153
333.139
332.974
332.342
332.247
331.846
331.173
330.594
329.802
329.306
328.482
324.63
325.157
325.852
326.268
326.525
326.614
327.085
327.026
327.306
327.224
327.232
327.047
326.508
326.512
326.122
325.662
325.119
324.416
324.098
323.418
319.18
319.617
320.161
320.481
320.687
320.744
321.085
321.08
321.281
321.209
321.175
321.025
320.654
320.737
320.358
320.061
319.562
318.958
318.803
318.267
313.716
314.055
314.442
314.669
314.775
314.845
315.099
315.097
315.246
315.152
315.084
315.044
314.798
314.873
314.536
314.429
313.991
313.539
313.467
313.069
308.213
308.439
308.666
308.835
308.889
308.931
309.063
309.063
309.129
309.062
309.053
309.036
308.898
308.935
308.738
308.671
308.435
308.135
308.104
307.855
302.754
302.835
302.917
302.97
302.97
302.995
303.031
303.033
303.074
303.029
303.023
303.034
302.997
302.992
302.902
302.917
302.836
302.736
302.716
302.636
341.645
342.521
343.593
344.582
345.061
345.306
345.853
345.918
346.064
346.063
345.986
345.831
345.407
344.672
344.024
343.379
342.568
341.487
340.378
339.636
336.168
336.91
337.904
338.776
339.175
339.345
339.828
339.872
340.012
340.021
339.956
339.819
339.41
338.821
338.283
337.693
336.97
336.027
335.097
334.506
330.665
331.28
332.128
332.855
333.236
333.41
333.77
333.764
333.933
333.912
333.861
333.749
333.352
332.967
332.477
331.993
331.362
330.535
329.764
329.282
325.08
325.655
326.36
326.936
327.278
327.408
327.689
327.662
327.828
327.755
327.761
327.643
327.311
327.082
326.639
326.298
325.735
325.002
324.422
324.016
319.546
320.007
320.582
320.949
321.258
321.312
321.587
321.577
321.68
321.63
321.665
321.501
321.244
321.093
320.775
320.551
320.057
319.5
319.026
318.762
313.968
314.33
314.744
314.989
315.195
315.265
315.473
315.464
315.505
315.502
315.491
315.355
315.194
315.083
314.858
314.717
314.352
313.975
313.616
313.45
308.416
308.585
308.891
309.008
309.12
309.172
309.296
309.27
309.331
309.318
309.292
309.209
309.109
309.076
308.922
308.863
308.639
308.404
308.191
308.12
302.836
302.857
303.001
303.023
303.064
303.056
303.113
303.115
303.136
303.124
303.11
303.092
303.056
303.047
302.995
302.967
302.897
302.812
302.769
302.714
342.898
343.96
345.044
346.016
346.474
346.858
347.236
347.581
347.594
347.794
347.554
347.561
347.048
346.289
345.492
344.786
344.162
343.027
342.013
341.09
337.245
338.167
339.125
339.974
340.352
340.689
341.029
341.27
341.287
341.489
341.26
341.324
340.856
340.218
339.486
338.917
338.353
337.361
336.511
335.693
331.54
332.385
333.184
333.922
334.205
334.469
334.806
334.94
334.999
335.14
334.947
335.062
334.647
334.11
333.428
332.98
332.537
331.688
330.99
330.271
325.838
326.561
327.221
327.788
328.048
328.241
328.557
328.597
328.701
328.756
328.642
328.75
328.429
327.985
327.336
327.026
326.656
326.004
325.414
324.817
320.094
320.674
321.219
321.645
321.846
321.951
322.257
322.261
322.391
322.365
322.285
322.384
322.154
321.783
321.259
321.061
320.757
320.288
319.828
319.272
314.324
314.79
315.186
315.478
315.617
315.679
315.896
315.923
316.07
316.024
315.949
316.008
315.837
315.581
315.196
315.08
314.846
314.552
314.227
313.718
308.619
308.872
309.118
309.305
309.412
309.403
309.538
309.584
309.667
309.671
309.595
309.629
309.51
309.398
309.126
309.057
308.913
308.774
308.589
308.236
302.887
302.988
303.062
303.117
303.157
303.158
303.197
303.192
303.249
303.241
303.216
303.224
303.18
303.159
303.061
303.041
302.977
302.943
302.88
302.769
344.604
345.728
346.615
347.43
348.115
348.446
348.793
349.326
349.403
349.559
349.382
349.296
348.784
348.123
347.299
346.547
345.716
344.678
343.545
342.429
338.731
339.708
340.502
341.175
341.697
342.064
342.353
342.809
342.926
343.038
342.905
342.811
342.326
341.761
341.049
340.416
339.692
338.823
337.813
336.905
332.826
333.624
334.343
334.872
335.257
335.656
335.917
336.263
336.409
336.472
336.398
336.295
335.921
335.37
334.795
334.247
333.662
332.899
332.065
331.296
326.883
327.539
328.141
328.561
328.86
329.235
329.432
329.638
329.868
329.896
329.793
329.725
329.431
328.917
328.517
328.023
327.542
326.979
326.287
325.693
320.907
321.379
321.897
322.256
322.476
322.792
322.914
323.029
323.261
323.308
323.165
323.139
322.967
322.502
322.206
321.834
321.437
321.028
320.485
319.97
314.933
315.236
315.696
315.91
316.054
316.306
316.386
316.447
316.626
316.692
316.504
316.532
316.472
316.107
315.902
315.619
315.285
315.065
314.636
314.245
308.979
309.162
309.464
309.571
309.636
309.8
309.872
309.854
309.97
310.048
309.874
309.939
309.903
309.654
309.543
309.396
309.157
309.071
308.789
308.527
303
303.092
303.184
303.218
303.237
303.296
303.293
303.301
303.335
303.374
303.324
303.322
303.304
303.227
303.19
303.15
303.085
303.024
302.94
302.847
346.257
347.158
348.28
348.947
349.624
350.335
350.72
351.333
351.432
351.352
351.196
351.019
350.356
349.915
349.188
348.423
347.36
346.336
345.202
344.255
340.16
340.952
341.901
342.457
343.002
343.647
344.035
344.539
344.616
344.521
344.441
344.266
343.738
343.322
342.727
342.077
341.084
340.204
339.24
338.495
334.059
334.678
335.507
335.973
336.425
336.98
337.323
337.721
337.758
337.698
337.65
337.481
337.093
336.711
336.234
335.632
334.785
334.081
333.265
332.66
327.883
328.38
329.04
329.479
329.829
330.242
330.552
330.889
330.879
330.836
330.802
330.703
330.405
330.083
329.703
329.169
328.423
327.901
327.268
326.81
321.731
322.124
322.542
322.97
323.259
323.498
323.785
324.044
324.007
323.985
323.941
323.906
323.702
323.444
323.135
322.75
322.109
321.721
321.236
320.872
315.556
315.841
316.095
316.394
316.639
316.76
317.002
317.197
317.147
317.123
317.081
317.124
316.987
316.794
316.54
316.279
315.801
315.529
315.18
314.917
309.349
309.514
309.668
309.848
309.971
310.03
310.211
310.321
310.307
310.259
310.269
310.274
310.249
310.113
309.96
309.78
309.49
309.33
309.098
308.927
303.138
303.184
303.241
303.297
303.334
303.357
303.41
303.459
303.46
303.444
303.449
303.43
303.436
303.384
303.341
303.274
303.181
303.139
303.043
302.987
347.74
348.486
349.832
350.483
351.253
352.16
352.465
353.04
353.161
353.036
352.816
352.687
352.396
351.674
351.177
350.223
349.114
347.947
346.727
345.845
341.452
342.073
343.232
343.781
344.441
345.249
345.535
346.018
346.081
345.989
345.843
345.751
345.473
344.851
344.409
343.634
342.665
341.587
340.546
339.826
335.076
335.641
336.61
337.089
337.672
338.289
338.586
338.953
338.975
338.967
338.792
338.762
338.537
337.951
337.667
336.978
336.135
335.19
334.324
333.76
328.74
329.2
329.962
330.338
330.844
331.297
331.615
331.924
331.877
331.9
331.729
331.753
331.578
331.051
330.851
330.292
329.577
328.758
328.056
327.653
322.43
322.693
323.374
323.597
324.027
324.32
324.625
324.87
324.78
324.824
324.649
324.753
324.59
324.158
324.005
323.588
323.056
322.378
321.803
321.532
316.026
316.206
316.743
316.836
317.207
317.365
317.615
317.835
317.687
317.73
317.61
317.72
317.592
317.241
317.185
316.823
316.469
315.993
315.6
315.391
309.602
309.736
310.072
310.13
310.322
310.413
310.56
310.751
310.607
310.62
310.574
310.668
310.594
310.355
310.324
310.087
309.896
309.626
309.353
309.213
303.198
303.267
303.375
303.399
303.453
303.5
303.544
303.616
303.564
303.566
303.549
303.612
303.569
303.476
303.468
303.379
303.32
303.246
303.161
303.072
349.201
350.156
351.236
352.031
352.858
353.793
354.121
354.443
354.69
354.67
354.57
354.361
354.033
353.261
352.627
351.675
350.822
349.419
348.356
347.462
342.758
343.507
344.447
345.153
345.861
346.679
346.951
347.26
347.451
347.423
347.336
347.161
346.922
346.201
345.668
344.864
344.146
342.885
341.962
341.275
336.236
336.827
337.622
338.213
338.812
339.485
339.771
340.062
340.204
340.173
340.051
339.931
339.75
339.137
338.759
338.014
337.401
336.326
335.538
335.018
329.692
330.152
330.78
331.251
331.719
332.323
332.584
332.782
332.905
332.902
332.778
332.691
332.55
332.045
331.797
331.165
330.617
329.756
329.144
328.682
323.109
323.467
323.949
324.315
324.651
325.13
325.402
325.522
325.585
325.592
325.493
325.428
325.319
324.95
324.851
324.292
323.821
323.17
322.709
322.336
316.539
316.793
317.136
317.383
317.587
317.941
318.162
318.267
318.256
318.262
318.206
318.2
318.048
317.814
317.823
317.384
316.994
316.56
316.299
315.997
309.947
310.12
310.301
310.442
310.554
310.744
310.918
310.965
310.935
310.95
310.92
310.932
310.808
310.698
310.725
310.446
310.191
309.949
309.853
309.635
303.352
303.391
303.431
303.524
303.541
303.599
303.678
303.674
303.647
303.661
303.671
303.651
303.612
303.594
303.601
303.491
303.42
303.329
303.314
303.233
350.657
351.378
352.683
353.891
354.469
355.173
355.873
356.351
356.483
356.59
356.258
356.045
355.801
355.128
354.052
353.21
352.288
351.032
350.026
348.793
343.972
344.607
345.738
346.756
347.264
347.87
348.485
348.878
349.026
349.105
348.771
348.633
348.413
347.842
346.941
346.183
345.356
344.284
343.449
342.37
337.255
337.791
338.762
339.601
340.096
340.542
341.065
341.383
341.551
341.583
341.274
341.201
341.023
340.547
339.813
339.105
338.386
337.487
336.824
335.938
330.529
330.934
331.72
332.397
332.845
333.192
333.617
333.884
334.026
334.04
333.773
333.754
333.596
333.254
332.614
331.977
331.445
330.719
330.196
329.479
323.783
324.089
324.632
325.194
325.542
325.857
326.177
326.344
326.475
326.49
326.262
326.276
326.171
325.9
325.358
324.886
324.498
323.922
323.508
322.978
317.015
317.246
317.607
317.992
318.255
318.501
318.663
318.841
318.85
318.895
318.772
318.775
318.705
318.507
318.098
317.794
317.534
317.121
316.842
316.427
310.242
310.399
310.546
310.807
310.975
311.091
311.191
311.312
311.297
311.34
311.305
311.256
311.2
311.129
310.873
310.665
310.543
310.297
310.138
309.865
303.432
303.479
303.517
303.614
303.702
303.71
303.753
303.787
303.775
303.806
303.794
303.797
303.749
303.73
303.642
303.582
303.55
303.45
303.413
303.291
351.999
352.849
353.958
355.335
356.045
356.699
357.488
357.891
358.242
358.182
357.85
357.631
357.557
356.677
355.729
354.705
353.77
352.501
351.169
350.233
345.152
345.865
346.806
347.981
348.617
349.191
349.87
350.197
350.521
350.494
350.181
350.005
349.948
349.177
348.379
347.467
346.677
345.534
344.444
343.628
338.233
338.864
339.669
340.641
341.183
341.656
342.268
342.482
342.811
342.756
342.535
342.365
342.262
341.696
340.983
340.208
339.556
338.579
337.686
336.958
331.291
331.818
332.473
333.246
333.729
334.111
334.614
334.763
335.04
335
334.871
334.72
334.618
334.179
333.553
332.958
332.408
331.589
330.898
330.273
324.354
324.748
325.283
325.852
326.271
326.553
326.935
327.062
327.283
327.266
327.154
327.054
326.949
326.594
326.13
325.683
325.258
324.595
324.114
323.563
317.415
317.658
318.072
318.484
318.764
318.981
319.292
319.371
319.511
319.511
319.431
319.318
319.26
318.985
318.691
318.368
318.025
317.593
317.236
316.872
310.443
310.616
310.841
311.132
311.284
311.402
311.616
311.663
311.711
311.724
311.67
311.588
311.571
311.363
311.263
311.072
310.77
310.6
310.369
310.166
303.494
303.549
303.633
303.735
303.782
303.821
303.9
303.906
303.925
303.921
303.922
303.871
303.89
303.815
303.779
303.739
303.61
303.567
303.462
303.4
353.239
354.416
355.494
356.58
357.383
358.153
358.918
359.512
359.572
359.644
359.57
359.277
358.998
358.258
357.398
356.503
355.394
354.037
352.843
351.592
346.227
347.237
348.125
349.085
349.747
350.464
351.106
351.625
351.707
351.705
351.598
351.47
351.202
350.557
349.849
349
348.092
346.888
345.899
344.791
339.206
339.963
340.754
341.58
342.098
342.726
343.273
343.706
343.828
343.768
343.645
343.645
343.344
342.798
342.23
341.458
340.747
339.663
338.922
337.956
332.168
332.711
333.331
334.02
334.437
334.994
335.416
335.776
335.959
335.866
335.741
335.757
335.501
335.046
334.562
333.935
333.376
332.455
331.897
331.066
325.077
325.439
325.915
326.468
326.784
327.217
327.568
327.861
328.044
327.962
327.816
327.851
327.623
327.298
326.894
326.424
325.984
325.241
324.818
324.152
317.903
318.185
318.508
318.916
319.153
319.447
319.723
319.898
320.059
320.014
319.906
319.922
319.712
319.51
319.265
318.886
318.56
318.01
317.7
317.235
310.734
310.945
311.11
311.352
311.541
311.678
311.871
311.942
312.083
312.03
311.954
311.967
311.791
311.694
311.593
311.369
311.132
310.788
310.607
310.345
303.604
303.665
303.728
303.809
303.886
303.916
303.979
303.997
304.066
304.015
304.01
303.995
303.95
303.91
303.9
303.816
303.703
303.601
303.551
303.479
354.465
355.43
356.621
357.892
358.695
359.909
360.463
360.877
361.159
361.179
361.001
360.768
360.312
359.572
358.833
357.782
356.553
355.311
354.126
352.716
347.278
348.087
349.128
350.236
350.896
351.97
352.469
352.876
353.042
353.09
352.892
352.777
352.359
351.706
351.027
350.127
349.057
348.016
347.011
345.755
340.105
340.756
341.637
342.525
343.041
343.985
344.425
344.813
344.891
344.939
344.823
344.712
344.342
343.818
343.232
342.414
341.624
340.652
339.831
338.755
332.887
333.357
334.101
334.83
335.214
336.011
336.353
336.693
336.75
336.769
336.706
336.643
336.304
335.888
335.402
334.651
334.112
333.253
332.62
331.762
325.548
325.987
326.568
327.107
327.385
328.026
328.282
328.568
328.561
328.618
328.544
328.547
328.235
327.981
327.542
326.944
326.544
325.841
325.415
324.728
318.267
318.567
318.944
319.362
319.573
320.024
320.181
320.407
320.394
320.423
320.399
320.425
320.181
320.006
319.702
319.263
319.005
318.421
318.164
317.65
310.944
311.155
311.32
311.638
311.741
312.033
312.126
312.289
312.287
312.27
312.265
312.226
312.116
312.035
311.834
311.568
311.416
311.08
310.909
310.596
303.651
303.726
303.793
303.913
303.943
304.043
304.07
304.12
304.124
304.103
304.124
304.077
304.07
304.046
303.942
303.89
303.842
303.719
303.645
303.554
355.498
356.527
357.906
359.167
359.95
360.97
361.656
362.205
362.376
362.445
362.35
362.001
361.519
361.157
359.965
359.128
357.933
356.492
355.309
353.972
348.198
348.994
350.229
351.341
351.991
352.877
353.426
353.984
354.136
354.168
354.065
353.806
353.329
353.04
352.024
351.318
350.28
349.028
347.988
346.866
340.824
341.465
342.51
343.478
344.003
344.764
345.187
345.7
345.857
345.862
345.776
345.553
345.153
344.87
344.07
343.44
342.582
341.526
340.706
339.782
333.429
333.967
334.771
335.596
335.987
336.609
336.978
337.403
337.519
337.571
337.487
337.315
336.957
336.708
336.113
335.579
334.908
334.032
333.33
332.646
325.98
326.412
327.011
327.648
327.984
328.486
328.709
329.067
329.228
329.272
329.181
329.057
328.793
328.546
328.135
327.696
327.218
326.535
325.956
325.412
318.534
318.889
319.325
319.715
319.955
320.345
320.448
320.759
320.913
320.958
320.849
320.776
320.597
320.396
320.122
319.779
319.463
318.937
318.552
318.193
311.137
311.364
311.63
311.869
311.959
312.238
312.235
312.509
312.562
312.569
312.499
312.474
312.363
312.244
312.097
311.852
311.694
311.385
311.125
310.918
303.761
303.823
303.922
303.985
304.002
304.093
304.108
304.197
304.216
304.216
304.17
304.186
304.155
304.108
304.054
303.963
303.914
303.825
303.712
303.656
356.619
357.668
359.093
360.302
361.258
362.077
362.612
363.168
363.732
363.592
363.632
363.292
362.696
362.132
361.238
360.266
359.119
357.915
356.438
354.975
349.12
350.02
351.241
352.338
353.145
353.865
354.305
354.797
355.286
355.187
355.203
354.864
354.405
353.887
353.096
352.299
351.298
350.24
348.978
347.759
341.648
342.311
343.378
344.317
344.992
345.643
346.011
346.399
346.816
346.753
346.733
346.442
346.072
345.672
344.96
344.261
343.481
342.577
341.516
340.546
334.194
334.598
335.517
336.301
336.841
337.371
337.674
337.995
338.308
338.288
338.226
338.034
337.731
337.41
336.795
336.241
335.589
334.921
334.053
333.242
326.624
326.897
327.676
328.267
328.687
329.101
329.335
329.557
329.763
329.849
329.71
329.617
329.384
329.137
328.647
328.209
327.705
327.226
326.545
325.885
319.006
319.191
319.75
320.223
320.496
320.794
320.938
321.156
321.213
321.382
321.182
321.155
321.029
320.819
320.487
320.195
319.798
319.505
319.03
318.512
311.411
311.534
311.853
312.172
312.325
312.501
312.547
312.702
312.745
312.872
312.717
312.709
312.629
312.499
312.343
312.154
311.917
311.715
311.453
311.136
303.821
303.87
303.973
304.081
304.115
304.191
304.217
304.261
304.285
304.318
304.27
304.246
304.234
304.187
304.14
304.101
304.015
303.939
303.847
303.717
357.514
358.687
359.963
361.261
362.27
363.12
363.809
364.393
364.702
364.654
364.653
364.299
363.929
363.365
362.203
361.345
360.311
358.82
357.517
356.08
349.911
350.929
352.012
353.135
354.008
354.825
355.347
355.848
356.083
356.062
356.071
355.742
355.459
354.989
353.986
353.231
352.304
351.051
349.963
348.674
342.286
343.168
344.045
344.949
345.702
346.45
346.845
347.28
347.46
347.488
347.501
347.231
346.95
346.592
345.725
345.065
344.303
343.255
342.331
341.209
334.636
335.383
336.026
336.788
337.406
338.07
338.341
338.68
338.845
338.876
338.893
338.672
338.44
338.192
337.423
336.88
336.293
335.411
334.647
333.692
326.967
327.542
328.012
328.601
329.095
329.664
329.839
330.109
330.242
330.313
330.283
330.093
329.9
329.732
329.097
328.722
328.252
327.578
326.988
326.197
319.297
319.715
320.016
320.444
320.74
321.197
321.329
321.511
321.605
321.7
321.652
321.495
321.358
321.275
320.79
320.576
320.207
319.739
319.267
318.715
311.594
311.874
312.04
312.283
312.419
312.723
312.812
312.928
313.01
313.033
312.994
312.928
312.835
312.812
312.511
312.393
312.109
311.878
311.54
311.247
303.894
303.991
304.038
304.12
304.167
304.272
304.293
304.324
304.372
304.366
304.352
304.34
304.296
304.285
304.2
304.165
304.059
303.964
303.868
303.737
358.091
359.647
360.924
361.873
363.188
364.388
364.856
365.407
365.541
365.752
365.738
365.372
364.967
364.284
363.254
362.243
361.196
359.718
358.252
357.099
350.401
351.803
352.868
353.667
354.785
355.883
356.26
356.738
356.885
357.069
357.082
356.725
356.336
355.799
354.881
353.966
353.082
351.784
350.586
349.58
342.695
343.888
344.799
345.425
346.363
347.337
347.662
348.035
348.163
348.354
348.381
348.069
347.714
347.258
346.456
345.71
344.895
343.792
342.9
342.032
334.986
335.981
336.69
337.208
337.946
338.764
339.057
339.333
339.389
339.615
339.658
339.35
339.067
338.71
338.011
337.405
336.718
335.841
335.146
334.437
327.29
328.038
328.52
328.972
329.531
330.163
330.418
330.621
330.629
330.817
330.904
330.63
330.41
330.112
329.579
329.103
328.597
327.915
327.406
326.783
319.52
320.085
320.395
320.739
321.187
321.542
321.737
321.884
321.893
322.042
322.132
321.896
321.713
321.501
321.137
320.773
320.463
319.976
319.627
319.117
311.732
312.073
312.241
312.467
312.755
312.934
313.047
313.138
313.139
313.211
313.311
313.169
313.008
312.884
312.72
312.488
312.294
312.028
311.818
311.469
303.934
304.034
304.09
304.184
304.287
304.348
304.36
304.41
304.399
304.444
304.466
304.392
304.363
304.315
304.277
304.182
304.108
304.05
303.965
303.855
358.829
360.528
361.806
362.926
363.996
365.07
365.853
366.242
366.467
366.649
366.862
366.369
365.699
365.123
364.217
363.158
362.153
360.575
359.095
357.838
351.028
352.465
353.644
354.551
355.488
356.433
357.182
357.477
357.649
357.784
357.973
357.565
356.999
356.462
355.656
354.782
353.928
352.529
351.262
350.228
343.178
344.38
345.44
346.153
346.982
347.79
348.471
348.675
348.816
348.922
349.049
348.727
348.303
347.797
347.104
346.366
345.667
344.486
343.415
342.576
335.365
336.313
337.24
337.758
338.448
339.118
339.685
339.85
339.951
340.005
340.152
339.912
339.574
339.124
338.565
337.945
337.382
336.382
335.505
334.893
327.53
328.262
328.987
329.375
329.889
330.422
330.899
331.008
331.087
331.123
331.222
331.125
330.843
330.435
330.043
329.522
329.039
328.302
327.598
327.185
319.677
320.17
320.756
320.985
321.316
321.757
322.09
322.144
322.241
322.244
322.303
322.274
322.078
321.759
321.509
321.124
320.756
320.223
319.695
319.452
311.852
312.081
312.488
312.617
312.783
313.063
313.299
313.273
313.363
313.366
313.368
313.429
313.272
313.081
312.906
312.69
312.47
312.164
311.858
311.695
303.986
304.054
304.177
304.246
304.273
304.389
304.448
304.459
304.495
304.465
304.47
304.516
304.443
304.375
304.318
304.27
304.179
304.09
303.972
303.923
359.319
360.865
362.251
363.631
364.858
365.753
366.468
366.902
367.347
367.355
367.375
367.047
366.506
366.009
365.36
363.818
362.734
361.382
359.831
358.513
351.458
352.791
354.007
355.206
356.228
357.075
357.619
358.02
358.451
358.436
358.397
358.122
357.673
357.24
356.661
355.378
354.403
353.264
351.905
350.851
343.552
344.729
345.704
346.714
347.615
348.352
348.772
349.131
349.52
349.489
349.417
349.223
348.834
348.457
347.986
346.88
346.043
345.152
343.935
343.138
335.692
336.62
337.358
338.222
339.002
339.608
339.947
340.219
340.512
340.501
340.448
340.317
340.035
339.618
339.317
338.367
337.695
337.009
335.932
335.352
327.76
328.501
329.076
329.686
330.37
330.854
331.119
331.266
331.506
331.508
331.468
331.386
331.216
330.816
330.573
329.864
329.335
328.839
327.98
327.522
319.858
320.392
320.751
321.166
321.685
322.091
322.271
322.298
322.511
322.492
322.484
322.444
322.307
322.017
321.865
321.345
321.017
320.626
319.972
319.668
311.928
312.269
312.438
312.67
313.015
313.252
313.396
313.391
313.527
313.511
313.476
313.503
313.4
313.229
313.164
312.825
312.652
312.388
311.974
311.826
303.993
304.108
304.166
304.24
304.356
304.427
304.5
304.469
304.552
304.512
304.513
304.536
304.481
304.418
304.426
304.281
304.239
304.142
304.009
303.972
359.907
361.243
362.736
364.337
365.303
366.28
366.998
367.451
367.84
367.961
367.98
367.645
367.309
366.62
365.843
364.5
363.238
362.021
360.464
358.932
351.983
353.119
354.412
355.787
356.623
357.465
358.076
358.491
358.835
358.888
358.969
358.664
358.362
357.798
357.146
355.969
354.849
353.803
352.44
351.147
344.046
344.986
346.072
347.216
347.935
348.651
349.18
349.525
349.797
349.855
349.97
349.714
349.411
348.957
348.38
347.383
346.42
345.557
344.379
343.378
336.112
336.833
337.73
338.63
339.261
339.81
340.278
340.547
340.814
340.81
340.899
340.738
340.43
340.075
339.615
338.808
337.962
337.3
336.323
335.5
328.153
328.67
329.38
330.066
330.59
330.955
331.335
331.524
331.792
331.779
331.816
331.716
331.392
331.182
330.836
330.201
329.487
329.054
328.277
327.591
320.172
320.512
321.017
321.502
321.852
322.105
322.4
322.569
322.715
322.722
322.777
322.678
322.412
322.285
322.029
321.592
321.059
320.78
320.225
319.703
312.125
312.331
312.634
312.905
313.153
313.29
313.439
313.541
313.645
313.663
313.677
313.617
313.467
313.385
313.219
312.971
312.637
312.484
312.192
311.856
304.075
304.126
304.232
304.31
304.403
304.455
304.505
304.508
304.558
304.595
304.575
304.548
304.504
304.483
304.425
304.366
304.223
304.19
304.096
303.96
360.218
361.474
363.037
364.409
365.656
366.734
367.4
367.883
368.165
368.507
368.345
368.112
367.753
367.129
366.128
365.086
363.827
362.335
360.943
359.524
352.277
353.314
354.652
355.853
356.938
357.85
358.452
358.879
359.12
359.368
359.276
359.101
358.716
358.199
357.34
356.443
355.361
354.082
352.885
351.647
344.278
345.104
346.262
347.252
348.221
348.965
349.486
349.801
350.042
350.181
350.15
350.039
349.688
349.263
348.586
347.82
346.918
345.833
344.809
343.743
336.308
336.903
337.827
338.621
339.459
340.1
340.543
340.743
341.017
341.077
341.056
340.959
340.638
340.346
339.783
339.169
338.432
337.58
336.711
335.835
328.259
328.678
329.421
330.027
330.675
331.175
331.606
331.679
331.956
331.957
331.948
331.852
331.586
331.407
330.958
330.487
329.866
329.312
328.583
327.875
320.199
320.466
321.03
321.486
321.942
322.265
322.614
322.611
322.893
322.849
322.84
322.721
322.53
322.452
322.174
321.762
321.357
320.987
320.444
319.914
312.134
312.274
312.618
312.902
313.181
313.368
313.581
313.578
313.764
313.756
313.72
313.66
313.484
313.486
313.31
313.055
312.845
312.617
312.308
311.95
304.063
304.118
304.23
304.33
304.422
304.506
304.566
304.561
304.609
304.619
304.604
304.597
304.513
304.532
304.466
304.378
304.307
304.221
304.146
304.006
360.471
361.706
363.344
364.45
365.827
366.706
367.595
368.234
368.519
368.764
368.496
368.2
367.751
367.441
366.346
365.366
364.198
362.649
361.467
359.9
352.473
353.517
354.934
355.872
357.09
357.79
358.53
359.164
359.413
359.614
359.357
359.165
358.673
358.513
357.518
356.707
355.669
354.338
353.354
352.035
344.427
345.307
346.509
347.247
348.367
348.891
349.515
350.09
350.285
350.459
350.197
350.154
349.688
349.511
348.674
348.018
347.14
346.035
345.199
344.109
336.366
337.012
338.038
338.663
339.614
339.982
340.518
340.988
341.148
341.317
341.097
341.043
340.719
340.531
339.816
339.359
338.581
337.69
337.022
336.098
328.276
328.752
329.584
330.073
330.878
331.083
331.524
331.876
332.032
332.138
331.963
331.918
331.695
331.542
330.969
330.645
330
329.37
328.829
328.105
320.189
320.476
321.168
321.529
322.064
322.208
322.535
322.775
322.894
322.96
322.837
322.806
322.732
322.539
322.105
321.931
321.447
321.007
320.586
320.067
312.139
312.282
312.726
312.941
313.256
313.347
313.55
313.643
313.741
313.814
313.708
313.694
313.699
313.545
313.243
313.211
312.857
312.651
312.352
312.04
304.069
304.124
304.265
304.329
304.436
304.471
304.551
304.592
304.611
304.625
304.585
304.588
304.579
304.551
304.44
304.412
304.298
304.247
304.13
304.016
)
;

boundaryField
{
    hotSide
    {
        type            fixedGradient;
        gradient        nonuniform List<scalar> 
400
(
414.965
432.504
449.815
466.821
483.444
499.605
515.226
530.231
544.545
558.096
570.813
582.632
593.49
603.331
612.103
619.759
626.261
631.575
635.673
638.536
425.086
443.175
461.036
478.587
495.749
512.44
528.579
544.089
558.891
572.91
586.075
598.318
609.574
619.785
628.897
636.863
643.64
649.194
653.497
656.527
433.995
452.59
470.954
489.007
506.665
523.845
540.463
556.44
571.694
586.15
599.731
612.37
623.998
634.556
643.989
652.246
659.284
665.068
669.568
672.762
441.639
460.689
479.509
498.016
516.124
533.747
550.802
567.204
582.872
597.726
611.69
624.692
636.664
647.543
657.273
665.801
673.085
679.086
683.774
687.126
447.977
467.429
486.652
505.562
524.07
542.089
559.533
576.316
592.354
607.566
621.875
635.205
647.489
658.66
668.661
677.44
684.949
691.152
696.016
699.518
452.978
472.776
492.348
511.605
530.46
548.823
566.606
583.722
600.085
615.612
630.224
643.845
656.405
667.837
678.082
687.085
694.8
701.187
706.215
709.857
456.623
476.708
496.57
516.119
535.264
553.917
571.986
589.383
606.022
621.818
636.691
650.562
663.361
675.019
685.477
694.678
702.575
709.128
714.303
718.076
458.903
479.215
499.306
519.086
538.464
557.349
575.649
593.275
610.139
626.155
641.241
655.32
668.318
680.166
690.804
700.174
708.228
714.926
720.232
724.121
459.819
480.295
500.553
520.503
540.053
559.111
577.584
595.383
612.418
628.604
643.856
658.097
671.253
683.253
694.036
703.544
711.729
718.548
723.967
727.959
459.38
479.955
500.317
520.373
540.033
559.203
577.791
595.706
612.858
629.16
644.529
658.886
672.155
684.267
695.159
704.773
713.06
719.976
725.488
729.568
457.603
478.212
498.612
518.712
538.419
557.639
576.282
594.254
611.466
627.832
643.266
657.69
671.029
683.211
694.175
703.861
712.22
719.209
724.792
728.943
454.513
475.091
495.464
515.542
535.232
554.441
573.076
591.046
608.262
624.636
640.085
654.528
667.889
680.1
691.097
700.82
709.221
716.256
721.889
726.094
450.142
470.622
490.904
510.895
530.504
549.638
568.205
586.115
603.277
619.605
635.015
649.427
662.766
674.962
685.952
695.678
704.09
711.143
716.803
721.043
444.526
464.845
484.969
504.809
524.274
543.272
561.71
579.5
596.551
612.777
628.096
642.428
655.698
667.838
678.782
688.475
696.865
703.91
709.574
713.83
437.711
457.803
477.707
497.333
516.591
535.39
553.64
571.25
588.134
604.205
619.381
633.584
646.739
658.779
669.638
679.262
687.6
694.608
700.253
704.507
429.744
449.548
469.169
488.519
507.509
526.049
544.051
561.426
578.087
593.949
608.932
622.958
635.953
647.85
658.587
668.107
676.36
683.306
688.908
693.14
420.682
440.137
459.414
478.428
497.091
515.315
533.013
550.096
566.48
582.082
596.822
610.624
623.415
635.129
645.705
655.087
663.226
670.081
675.618
679.809
410.585
429.633
448.51
467.13
485.41
503.261
520.599
537.337
553.393
568.685
583.135
596.668
609.213
620.705
631.083
640.294
648.289
655.028
660.477
664.61
399.519
418.105
436.526
454.7
472.541
489.967
506.893
523.236
538.915
553.85
567.965
581.186
593.444
604.676
614.823
623.831
631.655
638.253
643.593
647.65
387.556
405.63
423.544
441.218
458.572
475.523
491.989
507.889
523.145
537.679
551.415
564.285
576.219
587.156
597.038
605.815
613.44
619.874
625.085
629.049
)
;
    }
    coldSide
    {
        type            mixed;
        refValue        uniform 300;
        refGradient     uniform 0;
        valueFraction   uniform 0.991591;
        source          uniform 0;
        value           nonuniform List<scalar> 
400
(
300.023
300.024
300.024
300.025
300.026
300.027
300.028
300.029
300.029
300.03
300.031
300.032
300.032
300.033
300.033
300.034
300.034
300.034
300.034
300.034
300.024
300.024
300.025
300.026
300.027
300.027
300.029
300.029
300.03
300.031
300.031
300.032
300.033
300.034
300.034
300.034
300.035
300.035
300.035
300.035
300.025