/*--------------------------------*- C++ -*----------------------------------*\
| =========                 |                                                 |
| \\      /  F ield         | OpenFOAM: The Open Source CFD Toolbox           |
|  \\    /   O peration     | Version:  2212                                  |
|   \\  /    A nd           | Website:  www.openfoam.com                      |
|    \\/     M anipulation  |                                                 |
\*---------------------------------------------------------------------------*/
FoamFile
{
    version     2.0;
    format      ascii;
    arch        "LSB;label=32;scalar=64";
    class       volScalarField;
    location    "0";
    object      T;
}
// * * * * * * * * * * * * * * * * * * * * * * * * * * * * * * * * * * * * * //

dimensions      [0 0 0 1 0 0 0];

internalField   nonuniform List<scalar> 
3200
(
344.782
345.372
346.623
347.354
348.048
348.442
349.102
349.381
349.612
349.664
349.75
349.364
349.108
348.592
347.693
347.176
346.339
345.509
344.086
343.499
338.895
339.414
340.526
341.135
341.713
342.089
342.63
342.879
343.038
343.157
343.168
342.905
342.622
342.145
341.347
340.929
340.207
339.471
338.25
337.72
332.972
333.396
334.37
334.892
335.325
335.682
336.117
336.363
336.416
336.572
336.553
336.415
336.11
335.682
335.014
334.678
334.026
333.395
332.424
331.909
327.002
327.363
328.161
328.594
328.941
329.266
329.586
329.743
329.809
329.964
329.933
329.841
329.557
329.192
328.642
328.383
327.801
327.339
326.589
326.137
321.006
321.33
321.924
322.287
322.543
322.857
323.044
323.125
323.233
323.339
323.315
323.248
323.027
322.688
322.281
322.076
321.6
321.275
320.687
320.292
315.003
315.248
315.653
315.953
316.119
316.377
316.49
316.549
316.606
316.723
316.699
316.613
316.462
316.197
315.952
315.771
315.429
315.221
314.816
314.491
309.05
309.151
309.415
309.588
309.699
309.826
309.919
309.936
309.98
310.072
310.005
310
309.85
309.705
309.584
309.504
309.257
309.155
308.89
308.689
303.04
303.047
303.15
303.216
303.259
303.298
303.313
303.345
303.358
303.369
303.346
303.342
303.287
303.247
303.221
303.183
303.106
303.059
302.981
302.915
345.833
346.493
347.336
348.42
349.08
349.592
350.356
350.555
350.762
350.626
350.782
350.449
350.277
349.673
348.741
348.2
347.151
346.31
345.27
344.344
339.773
340.322
341.043
342.005
342.559
342.993
343.671
343.843
344.028
343.881
344.074
343.747
343.624
343.034
342.219
341.762
340.843
340.13
339.222
338.421
333.735
334.163
334.733
335.522
336.023
336.406
336.984
337.106
337.254
337.137
337.327
337.059
336.923
336.401
335.694
335.328
334.561
333.992
333.189
332.515
327.608
328.026
328.457
329.075
329.48
329.808
330.301
330.39
330.499
330.396
330.58
330.375
330.225
329.798
329.182
328.937
328.254
327.795
327.17
326.586
321.501
321.817
322.127
322.616
322.963
323.183
323.593
323.631
323.735
323.666
323.83
323.605
323.541
323.19
322.692
322.511
321.926
321.611
321.158
320.64
315.401
315.608
315.803
316.153
316.43
316.57
316.869
316.883
316.978
316.932
317.047
316.869
316.815
316.569
316.244
316.079
315.662
315.465
315.136
314.757
309.289
309.413
309.484
309.687
309.875
309.963
310.138
310.154
310.195
310.175
310.214
310.161
310.088
309.939
309.787
309.669
309.4
309.296
309.133
308.806
303.095
303.153
303.169
303.247
303.297
303.32
303.39
303.41
303.419
303.421
303.42
303.393
303.381
303.334
303.289
303.241
303.149
303.126
303.066
302.947
347.035
347.882
348.746
349.799
350.441
351.321
351.704
352.126
352.319
351.947
352.279
351.951
351.7
350.964
350.368
349.644
348.708
347.843
346.664
345.768
340.821
341.531
342.223
343.138
343.719
344.454
344.807
345.179
345.322
345
345.289
344.955
344.768
344.17
343.577
343.031
342.213
341.429
340.429
339.646
334.557
335.122
335.719
336.507
337.003
337.591
337.959
338.224
338.343
338.062
338.34
338.025
337.86
337.379
336.826
336.417
335.645
335.048
334.198
333.581
328.301
328.766
329.223
329.892
330.293
330.788
331.109
331.248
331.363
331.212
331.366
331.105
330.924
330.566
330.082
329.804
329.135
328.684
328.035
327.519
322.022
322.408
322.742
323.253
323.58
323.951
324.209
324.272
324.411
324.336
324.378
324.184
324.054
323.716
323.362
323.17
322.643
322.326
321.885
321.428
315.74
316.022
316.265
316.621
316.826
317.075
317.285
317.32
317.445
317.431
317.4
317.257
317.197
316.931
316.652
316.58
316.164
315.956
315.677
315.296
309.433
309.628
309.753
309.985
310.113
310.245
310.341
310.378
310.459
310.511
310.433
310.364
310.367
310.197
309.972
309.982
309.676
309.573
309.409
309.162
303.152
303.234
303.264
303.341
303.385
303.435
303.465
303.477
303.513
303.517
303.484
303.476
303.466
303.45
303.343
303.343
303.245
303.191
303.142
303.06
348.324
349.421
350.143
351.344
352.134
352.603
353.292
353.544
354.091
353.92
353.954
353.605
353.265
352.623
351.756
350.937
350.063
349.122
348.104
347.159
341.876
342.824
343.456
344.555
345.19
345.572
346.201
346.411
346.869
346.674
346.7
346.407
346.114
345.599
344.772
344.087
343.337
342.529
341.679
340.828
335.462
336.239
336.81
337.773
338.285
338.563
339.138
339.255
339.652
339.519
339.51
339.228
339.036
338.538
337.839
337.277
336.625
335.949
335.284
334.516
329.053
329.632
330.109
330.88
331.355
331.598
332.029
332.132
332.436
332.357
332.304
332.073
331.979
331.481
330.979
330.471
329.962
329.387
328.915
328.223
322.671
323.013
323.36
324.035
324.436
324.555
324.92
324.974
325.222
325.162
325.077
324.934
324.869
324.522
324.104
323.679
323.269
322.822
322.556
321.951
316.254
316.414
316.687
317.226
317.519
317.572
317.796
317.812
317.988
317.977
317.885
317.789
317.791
317.488
317.191
316.97
316.645
316.293
316.182
315.677
309.753
309.821
310.036
310.355
310.55
310.601
310.69
310.701
310.771
310.784
310.716
310.669
310.68
310.536
310.275
310.205
310.043
309.788
309.744
309.452
303.267
303.278
303.346
303.475
303.553
303.549
303.567
303.598
303.605
303.63
303.585
303.588
303.587
303.539
303.457
303.414
303.366
303.279
303.261
303.157
349.718
350.827
351.788
352.806
353.834
354.266
354.8
355.121
355.464
355.311
355.379
355.135
354.65
354.22
353.517
352.437
351.481
350.441
349.396
348.584
343.109
344.031
344.847
345.784
346.68
346.993
347.484
347.741
348.036
347.861
347.921
347.745
347.273
346.896
346.309
345.343
344.527
343.676
342.789
342.06
336.469
337.225
337.919
338.76
339.509
339.735
340.201
340.371
340.601
340.475
340.49
340.393
339.958
339.613
339.158
338.324
337.678
336.966
336.193
335.624
329.805
330.407
331.023
331.745
332.356
332.469
332.935
333.05
333.226
333.074
333.099
333.01
332.708
332.397
332.029
331.335
330.85
330.246
329.615
329.164
323.118
323.657
324.143
324.697
325.17
325.224
325.629
325.761
325.827
325.674
325.708
325.641
325.44
325.203
324.882
324.367
324.039
323.539
323.061
322.675
316.511
316.879
317.222
317.683
317.986
318.057
318.317
318.429
318.444
318.341
318.345
318.296
318.193
318.03
317.775
317.399
317.189
316.832
316.517
316.23
309.923
310.143
310.359
310.64
310.801
310.889
310.988
311.094
311.08
311.013
310.982
310.941
310.941
310.833
310.66
310.467
310.338
310.093
309.939
309.771
303.318
303.398
303.453
303.578
303.639
303.674
303.675
303.722
303.706
303.699
303.666
303.675
303.651
303.622
303.56
303.506
303.459
303.378
303.333
303.299
351.195
352.143
353.298
354.139
355.481
355.837
356.251
356.588
356.948
356.944
356.958
356.607
355.971
355.394
354.943
353.898
353.065
351.872
350.757
349.897
344.371
345.184
346.149
346.937
348.102
348.353
348.715
348.998
349.248
349.29
349.334
349.028
348.487
347.925
347.552
346.678
345.959
344.92
343.936
343.221
337.549
338.18
338.989
339.717
340.742
340.943
341.204
341.408
341.58
341.685
341.721
341.493
341.001
340.526
340.187
339.452
338.854
337.945
337.171
336.512
330.72
331.226
331.875
332.491
333.37
333.557
333.718
333.869
333.946
334.072
334.12
333.932
333.554
333.124
332.848
332.248
331.759
331.011
330.423
329.828
323.889
324.277
324.8
325.247
325.946
326.192
326.206
326.322
326.369
326.497
326.542
326.423
326.078
325.763
325.552
325.063
324.708
324.122
323.701
323.189
317.037
317.313
317.724
318.064
318.533
318.769
318.696
318.838
318.839
318.924
318.97
318.92
318.609
318.378
318.262
317.874
317.65
317.231
316.957
316.548
310.212
310.383
310.649
310.851
311.11
311.303
311.209
311.311
311.313
311.39
311.378
311.387
311.166
311.03
310.937
310.726
310.595
310.361
310.195
309.934
303.439
303.478
303.564
303.621
303.73
303.788
303.764
303.799
303.801
303.819
303.824
303.822
303.747
303.709
303.662
303.583
303.556
303.465
303.409
303.314
352.433
353.377
354.291
355.625
356.783
357.287
357.803
358.354
358.377
358.561
358.643
358.223
357.639
357.13
356.334
355.561
354.652
353.565
352.3
351.215
345.453
346.226
347.002
348.174
349.177
349.589
350.027
350.502
350.533
350.711
350.785
350.443
349.92
349.415
348.721
348.134
347.34
346.388
345.292
344.349
338.422
339.078
339.72
340.78
341.567
341.956
342.283
342.702
342.734
342.903
342.942
342.642
342.199
341.728
341.163
340.668
340.048
339.186
338.307
337.478
331.413
331.968
332.478
333.372
333.976
334.279
334.609
334.946
334.988
335.131
335.14
334.867
334.524
334.103
333.607
333.236
332.751
332.028
331.363
330.663
324.439
324.909
325.245
325.954
326.39
326.645
326.909
327.173
327.244
327.334
327.328
327.173
326.848
326.49
326.097
325.833
325.475
324.891
324.367
323.834
317.49
317.819
318.063
318.526
318.823
319.023
319.218
319.386
319.467
319.554
319.532
319.405
319.221
318.897
318.622
318.438
318.202
317.782
317.372
316.987
310.506
310.717
310.851
311.109
311.286
311.454
311.561
311.638
311.67
311.746
311.743
311.683
311.544
311.35
311.169
311.083
310.919
310.707
310.432
310.206
303.512
303.596
303.641
303.72
303.775
303.841
303.892
303.907
303.919
303.936
303.943
303.949
303.873
303.808
303.756
303.707
303.657
303.605
303.5
303.404
353.68
354.638
355.733
357.009
358.08
358.797
359.319
359.815
359.878
360.229
360.339
359.876
359.087
358.53
357.701
356.907
355.954
355.003
353.655
352.572
346.538
347.296
348.248
349.408
350.307
350.904
351.368
351.782
351.807
352.17
352.291
351.867
351.143
350.655
349.87
349.244
348.429
347.578
346.435
345.523
339.348
339.96
340.799
341.801
342.566
343.05
343.446
343.806
343.824
344.108
344.251
343.876
343.207
342.759
342.086
341.625
340.922
340.189
339.223
338.497
332.161
332.69
333.353
334.22
334.82
335.19
335.535
335.815
335.904
336.088
336.231
335.891
335.318
334.941
334.369
334.032
333.457
332.877
332.033
331.512
324.985
325.408
325.982
326.614
327.072
327.351
327.61
327.853
327.937
328.05
328.203
327.908
327.407
327.152
326.699
326.462
326.041
325.565
324.909
324.535
317.864
318.159
318.596
319.016
319.335
319.538
319.699
319.93
319.973
320.031
320.198
319.944
319.568
319.439
319.047
318.89
318.614
318.254
317.785
317.522
310.76
310.904
311.182
311.414
311.628
311.77
311.877
312.025
312.034
312.005
312.166
311.971
311.749
311.75
311.453
311.319
311.201
310.96
310.679
310.54
303.607
303.642
303.748
303.828
303.903
303.939
303.997
304.035
304.045
304.023
304.104
304
303.954
303.937
303.833
303.779
303.755
303.664
303.576
303.516
354.925
355.936
357.07
358.146
359.226
360.151
360.617
361.142
361.206
361.805
361.686
361.29
360.591
359.941
359.183
358.188
357.301
356.182
354.762
353.617
347.569
348.431
349.419
350.311
351.319
352.058
352.463
352.951
352.998
353.514
353.421
353.073
352.45
351.831
351.217
350.33
349.656
348.652
347.418
346.397
340.263
340.959
341.834
342.519
343.452
344
344.355
344.793
344.793
345.288
345.168
344.842
344.304
343.775
343.337
342.525
342.004
341.173
340.099
339.216
332.943
333.546
334.247
334.729
335.586
336
336.296
336.622
336.651
337.064
336.931
336.658
336.24
335.759
335.41
334.746
334.356
333.73
332.841
332.085
325.677
326.089
326.634
326.992
327.759
328.03
328.225
328.478
328.549
328.856
328.714
328.505
328.151
327.761
327.539
327.045
326.72
326.197
325.609
324.975
318.372
318.614
319.045
319.283
319.898
320.041
320.179
320.401
320.427
320.616
320.493
320.345
320.122
319.832
319.66
319.319
319.089
318.669
318.338
317.846
311.039
311.175
311.45
311.588
311.954
312.037
312.116
312.296
312.287
312.369
312.314
312.2
312.093
311.927
311.819
311.608
311.473
311.198
311.035
310.709
303.715
303.757
303.851
303.875
304.014
304.028
304.083
304.096
304.119
304.153
304.136
304.078
304.062
304.008
303.975
303.897
303.857
303.745
303.705
303.581
356.052
356.97
358.351
359.334
360.544
361.427
361.975
362.451
362.614
362.854
362.749
362.21
361.905
361.179
360.505
359.632
358.438
357.239
355.985
354.742
348.563
349.349
350.533
351.347
352.42
353.229
353.667
354.015
354.17
354.469
354.292
353.853
353.594
352.96
352.373
351.58
350.555
349.528
348.41
347.402
341.103
341.764
342.699
343.399
344.366
345.03
345.361
345.635
345.754
346.074
345.873
345.538
345.347
344.77
344.219
343.583
342.693
341.859
340.905
340.109
333.621
334.154
334.88
335.482
336.335
336.857
337.093
337.245
337.378
337.664
337.484
337.247
337.076
336.598
336.097
335.607
334.906
334.201
333.467
332.791
326.125
326.53
327.097
327.617
328.293
328.701
328.854
328.927
329.035
329.225
329.152
328.962
328.81
328.501
328.019
327.703
327.164
326.585
326.036
325.466
318.637
318.931
319.36
319.754
320.196
320.52
320.618
320.655
320.747
320.867
320.831
320.724
320.587
320.394
319.983
319.812
319.374
318.953
318.612
318.177
311.181
311.374
311.6
311.88
312.115
312.349
312.376
312.431
312.477
312.515
312.511
312.448
312.379
312.273
311.958
311.899
311.613
311.403
311.208
310.92
303.751
303.805
303.861
303.977
304.046
304.128
304.15
304.173
304.171
304.185
304.198
304.164
304.164
304.108
303.992
303.996
303.907
303.833
303.766
303.664
356.995
358.227
359.221
360.508
361.582
362.454
363.294
363.692
363.892
364.203
363.71
363.425
363.344
362.473
361.717
360.763
359.756
358.153
356.898
355.756
349.412
350.401
351.252
352.42
353.357
354.075
354.822
355.106
355.31
355.559
355.117
354.878
354.801
354.094
353.429
352.629
351.729
350.293
349.244
348.24
341.802
342.573
343.346
344.337
345.155
345.772
346.365
346.563
346.78
346.966
346.553
346.368
346.279
345.732
345.185
344.527
343.755
342.515
341.609
340.786
334.135
334.812
335.428
336.288
336.936
337.446
337.911
338.041
338.219
338.394
338.044
337.868
337.762
337.4
336.931
336.393
335.801
334.809
333.989
333.355
326.528
327.119
327.533
328.244
328.724
329.146
329.488
329.589
329.657
329.842
329.56
329.429
329.313
329.073
328.688
328.304
327.816
327.087
326.408
325.96
318.949
319.387
319.669
320.215
320.534
320.884
321.061
321.103
321.137
321.294
321.094
321.001
320.9
320.724
320.428
320.262
319.865
319.359
318.898
318.542
311.376
311.656
311.8
312.171
312.338
312.551
312.658
312.656
312.696
312.805
312.67
312.61
312.575
312.401
312.209
312.227
311.918
311.628
311.387
311.144
303.817
303.928
303.962
304.07
304.129
304.219
304.224
304.247
304.24
304.297
304.23
304.231
304.227
304.154
304.077
304.086
303.99
303.912
303.835
303.74
357.962
359.145
360.432
361.641
362.684
363.421
364.285
364.457
364.842
365.1
364.759
364.669
364.304
363.512
362.809
361.947
360.868
359.574
357.89
356.595
350.19
351.236
352.305
353.355
354.286
354.961
355.655
355.763
356.126
356.358
356.065
355.973
355.63
354.958
354.345
353.547
352.672
351.569
350.121
348.968
342.42
343.319
344.231
345.104
345.873
346.464
347.048
347.073
347.517
347.662
347.456
347.319
347.007
346.483
345.889
345.193
344.487
343.617
342.381
341.406
334.691
335.414
336.102
336.883
337.52
337.949
338.457
338.449
338.886
338.934
338.797
338.67
338.455
337.997
337.486
336.901
336.362
335.707
334.657
333.897
326.977
327.523
328.077
328.676
329.2
329.441
329.859
329.902
330.223
330.307
330.147
330.043
329.898
329.531
329.142
328.666
328.245
327.782
326.979
326.301
319.259
319.642
320.066
320.474
320.883
320.979
321.317
321.387
321.594
321.645
321.515
321.434
321.361
321.093
320.808
320.528
320.151
319.821
319.309
318.767
311.553
311.805
312.029
312.311
312.536
312.583
312.793
312.87
312.959
313.017
312.903
312.832
312.82
312.685
312.529
312.335
312.076
311.907
311.619
311.249
303.873
303.957
304.009
304.135
304.214
304.218
304.298
304.309
304.365
304.372
304.326
304.312
304.304
304.251
304.219
304.119
304.035
303.976
303.889
303.749
358.822
359.893
361.165
362.475
363.759
364.364
365.032
365.476
365.705
366.144
365.748
365.546
365.17
364.524
363.695
362.686
361.74
360.451
358.904
357.46
351.002
351.914
352.91
354.112
355.226
355.714
356.323
356.69
356.866
357.273
356.864
356.753
356.399
355.84
355.086
354.223
353.426
352.318
350.974
349.691
343.209
343.95
344.684
345.8
346.731
347.121
347.602
347.925
348.113
348.44
348.032
348.016
347.714
347.2
346.527
345.82
345.122
344.204
343.065
341.99
335.409
335.946
336.485
337.457
338.275
338.537
338.943
339.197
339.343
339.622
339.262
339.257
339.025
338.579
338.044
337.445
336.867
336.109
335.192
334.267
327.567
327.967
328.365
329.166
329.819
329.909
330.284
330.485
330.587
330.786
330.509
330.511
330.331
329.994
329.525
329.167
328.64
328.076
327.327
326.616
319.703
319.937
320.308
320.863
321.34
321.366
321.645
321.778
321.845
321.986
321.793
321.793
321.669
321.371
321.053
320.826
320.479
320.05
319.507
319.043
311.823
311.964
312.221
312.508
312.823
312.814
312.98
313.075
313.116
313.199
313.066
313.043
313.054
312.811
312.634
312.499
312.302
312.031
311.716
311.45
303.947
304.017
304.093
304.175
304.329
304.299
304.366
304.389
304.395
304.405
304.384
304.357
304.359
304.291
304.251
304.185
304.131
304.053
303.924
303.831
359.651
360.816
362.011
363.408
364.558
365.279
366.083
366.373
366.872
366.946
366.618
366.745
365.986
365.452
364.575
363.64
362.615
360.989
359.804
358.383
351.733
352.657
353.722
354.87
355.886
356.531
357.235
357.465
357.845
357.956
357.641
357.729
357.117
356.641
355.911
355.067
354.219
352.771
351.744
350.546
343.799
344.547
345.444
346.345
347.279
347.795
348.382
348.62
348.895
348.982
348.726
348.792
348.301
347.889
347.241
346.6
345.864
344.624
343.718
342.731
335.839
336.414
337.157
337.889
338.666
339.068
339.57
339.757
339.94
340.077
339.819
339.928
339.536
339.158
338.611
338.114
337.47
336.468
335.75
334.907
327.888
328.313
328.919
329.492
330.063
330.363
330.778
330.95
331.061
331.196
330.958
331.075
330.766
330.454
330.007
329.601
329.109
328.33
327.806
327.133
319.876
320.265
320.666
321.056
321.483
321.712
322.008
322.124
322.187
322.313
322.135
322.173
321.95
321.771
321.399
321.137
320.764
320.217
319.856
319.352
311.909
312.165
312.407
312.648
312.909
313.019
313.197
313.293
313.355
313.425
313.289
313.293
313.197
313.064
312.832
312.689
312.483
312.129
311.931
311.636
303.974
304.089
304.162
304.235
304.33
304.341
304.433
304.469
304.489
304.491
304.449
304.468
304.422
304.386
304.307
304.267
304.159
304.057
304.037
303.915
360.305
361.502
362.77
364.108
365.289
365.95
366.895
367.415
367.449
367.715
367.635
367.671
366.949
366.171
365.423
364.293
363.102
361.766
360.311
359.067
352.239
353.252
354.362
355.484
356.53
357.038
357.914
358.322
358.382
358.548
358.548
358.563
357.969
357.336
356.607
355.656
354.654
353.442
352.183
351.131
344.213
345.065
346.029
346.931
347.792
348.16
348.96
349.269
349.324
349.404
349.5
349.516
348.973
348.511
347.84
347.063
346.205
345.152
344.087
343.207
336.23
336.866
337.686
338.376
339.088
339.378
340.04
340.233
340.338
340.346
340.458
340.446
340.063
339.751
339.132
338.429
337.769
336.907
336.033
335.34
328.217
328.64
329.329
329.888
330.417
330.608
331.08
331.281
331.326
331.388
331.475
331.389
331.141
330.933
330.448
329.834
329.358
328.723
328.028
327.508
320.176
320.458
320.947
321.36
321.749
321.847
322.193
322.361
322.385
322.433
322.479
322.385
322.243
322.109
321.735
321.295
320.948
320.509
320.014
319.659
312.105
312.286
312.562
312.823
313.05
313.123
313.31
313.447
313.436
313.491
313.481
313.404
313.38
313.32
313.029
312.784
312.597
312.317
312.034
311.825
304.061
304.117
304.21
304.272
304.381
304.399
304.46
304.507
304.491
304.532
304.516
304.487
304.481
304.462
304.346
304.273
304.242
304.143
304.034
303.959
360.723
361.908
363.456
364.528
365.758
366.63
367.32
367.967
368.272
368.308
368.428
368.027
367.635
366.855
366.017
365.059
363.725
362.567
361.083
359.735
352.622
353.638
354.977
355.875
356.937
357.67
358.326
358.827
359.086
359.123
359.259
358.878
358.554
357.851
357.086
356.308
355.134
354.162
352.841
351.706
344.545
345.4
346.487
347.274
348.169
348.752
349.273
349.744
349.919
349.947
350.114
349.741
349.476
348.891
348.191
347.58
346.595
345.768
344.616
343.692
336.433
337.174
338.032
338.688
339.383
339.876
340.292
340.645
340.807
340.826
340.982
340.671
340.428
339.95
339.362
338.9
338.046
337.411
336.446
335.735
328.313
328.937
329.579
330.118
330.62
331.003
331.363
331.581
331.74
331.728
331.884
331.635
331.395
331.061
330.623
330.232
329.615
329.054
328.303
327.821
320.194
320.685
321.134
321.535
321.861
322.134
322.422
322.566
322.692
322.641
322.735
322.634
322.429
322.208
321.854
321.581
321.117
320.723
320.202
319.875
312.096
312.446
312.689
312.942
313.11
313.303
313.484
313.544
313.629
313.567
313.616
313.588
313.458
313.319
313.112
312.966
312.653
312.482
312.115
311.921
304.048
304.172
304.25
304.32
304.392
304.479
304.522
304.538
304.561
304.549
304.562
304.539
304.514
304.456
304.412
304.345
304.243
304.181
304.064
303.999
361.22
362.343
363.957
364.909
366.184
367.205
367.952
368.36
368.69
368.818
368.985
368.806
368.069
367.369
366.502
365.557
364.15
362.814
361.694
360.381
353.068
354.003
355.416
356.197
357.321
358.186
358.828
359.18
359.441
359.58
359.684
359.535
358.882
358.312
357.559
356.738
355.455
354.369
353.403
352.245
344.881
345.646
346.87
347.569
348.478
349.227
349.781
350.054
350.262
350.382
350.436
350.322
349.8
349.288
348.625
347.922
346.798
345.954
345.157
344.169
336.652
337.361
338.377
338.965
339.626
340.283
340.71
340.911
341.108
341.203
341.233
341.138
340.732
340.274
339.735
339.161
338.252
337.597
336.924
336.132
328.484
329.06
329.876
330.333
330.826
331.33
331.647
331.805
331.952
332.053
332.044
331.958
331.688
331.254
330.884
330.461
329.737
329.27
328.703
328.155
320.332
320.725
321.35
321.707
321.995
322.39
322.618
322.755
322.814
322.912
322.896
322.789
322.638
322.278
322.065
321.783
321.26
320.918
320.508
320.153
312.232
312.464
312.849
313.067
313.176
313.448
313.577
313.668
313.667
313.742
313.729
313.65
313.594
313.363
313.22
313.073
312.781
312.57
312.32
312.102
304.099
304.15
304.324
304.368
304.411
304.491
304.546
304.582
304.578
304.597
304.588
304.578
304.57
304.485
304.436
304.377
304.277
304.223
304.14
304.057
361.525
362.502
364.171
365.657
366.72
367.603
368.455
368.958
368.992
369.338
369.054
368.964
368.42
367.641
366.99
365.78
364.677
363.181
361.831
360.482
353.32
354.116
355.565
356.841
357.771
358.537
359.263
359.672
359.686
360.017
359.767
359.701
359.18
358.522
357.926
356.868
355.949
354.663
353.499
352.344
345.158
345.799
346.999
348.11
348.892
349.451
350.109
350.425
350.451
350.742
350.53
350.432
350.017
349.443
348.874
348.041
347.292
346.211
345.201
344.239
336.95
337.48
338.466
339.37
339.996
340.462
340.984
341.223
341.248
341.469
341.343
341.224
340.889
340.397
339.919
339.263
338.666
337.808
336.927
336.157
328.744
329.128
329.934
330.585
331.081
331.445
331.846
332.076
332.049
332.206
332.174
331.999
331.781
331.386
331.006
330.523
330.044
329.396
328.694
328.131
320.545
320.802
321.38
321.831
322.21
322.433
322.74
322.922
322.851
322.991
322.998
322.798
322.73
322.422
322.088
321.805
321.459
321.04
320.501
320.119
312.321
312.506
312.86
313.087
313.338
313.462
313.652
313.794
313.699
313.782
313.831
313.675
313.658
313.46
313.237
313.1
312.911
312.67
312.328
312.06
304.127
304.178
304.317
304.406
304.467
304.523
304.569
304.632
304.589
304.608
304.648
304.58
304.575
304.516
304.427
304.393
304.331
304.233
304.13
304.048
361.628
362.819
364.437
366.019
367.022
367.961
368.646
369.209
369.301
369.434
369.381
369.156
368.835
367.996
367.181
366.177
364.988
363.656
362.099
360.67
353.393
354.432
355.852
357.19
358.032
358.827
359.427
359.869
359.907
360.127
359.995
359.822
359.582
358.821
358.092
357.264
356.233
355.059
353.709
352.516
345.187
346.111
347.261
348.351
349.081
349.766
350.259
350.606
350.594
350.885
350.7
350.513
350.378
349.698
349.062
348.416
347.533
346.524
345.36
344.439
336.981
337.744
338.689
339.569
340.153
340.676
341.114
341.388
341.341
341.661
341.442
341.222
341.166
340.619
340.12
339.559
338.861
338.072
337.069
336.369
328.747
329.36
330.118
330.832
331.216
331.636
331.981
332.154
332.112
332.401
332.23
332.02
331.998
331.569
331.183
330.718
330.203
329.6
328.81
328.314
320.554
320.951
321.526
322.027
322.268
322.592
322.843
322.984
322.904
323.131
322.999
322.848
322.828
322.542
322.314
321.935
321.557
321.133
320.56
320.195
312.296
312.596
312.949
313.217
313.371
313.568
313.723
313.793
313.79
313.877
313.82
313.7
313.701
313.554
313.422
313.177
312.978
312.697
312.351
312.121
304.125
304.237
304.338
304.434
304.466
304.552
304.595
304.621
304.639
304.671
304.631
304.601
304.597
304.555
304.496
304.423
304.374
304.253
304.154
304.075
361.667
363.102
364.57
366.021
367.08
367.765
368.575
369.152
369.523
369.694
369.431
369.36
368.753
368.08
367.383
366.239
365.285
363.807
362.285
361.021
353.427
354.631
355.909
357.178
358.107
358.675
359.328
359.843
360.119
360.352
360.091
360.019
359.516
358.951
358.312
357.33
356.525
355.222
353.862
352.788
345.205
346.206
347.293
348.346
349.102
349.612
350.122
350.555
350.768
351.026
350.77
350.725
350.307
349.848
349.293
348.458
347.756
346.675
345.529
344.623
337.013
337.776
338.697
339.54
340.103
340.584
340.951
341.335
341.514
341.72
341.483
341.479
341.153
340.807
340.292
339.63
339.026
338.189
337.191
336.451
328.831
329.369
330.114
330.787
331.148
331.575
331.79
332.109
332.276
332.464
332.225
332.267
331.976
331.747
331.353
330.819
330.381
329.745
328.918
328.293
320.622
320.988
321.564
321.989
322.278
322.595
322.706
322.962
323.082
323.183
323.039
323.071
322.843
322.721
322.372
322.013
321.719
321.306
320.649
320.208
312.4
312.635
312.987
313.213
313.379
313.601
313.633
313.787
313.886
313.913
313.849
313.862
313.744
313.653
313.427
313.195
313.095
312.809
312.381
312.108
304.164
304.247
304.342
304.44
304.496
304.557
304.563
304.615
304.671
304.663
304.651
304.642
304.613
304.587
304.513
304.416
304.405
304.293
304.144
304.051
)
;

boundaryField
{
    hotSide
    {
        type            fixedGradient;
        gradient        nonuniform List<scalar> 
400
(
464.558
481.34
497.791
513.839
529.41
544.432
558.832
572.54
585.488
597.612
608.849
619.14
628.433
636.678
643.831
649.854
654.715
658.388
660.852
662.096
476.357
493.634
510.575
527.105
543.148
558.63
573.475
587.613
600.972
613.486
625.09
635.725
645.334
653.868
661.28
667.531
672.588
676.424
679.018
680.356
486.909
504.636
522.023
538.992
555.466
571.367
586.62
601.15
614.886
627.758
639.699
650.65
660.551
669.351
677.004
683.467
688.708
692.697
695.413
696.842
496.157
514.287
532.072
549.435
566.294
582.572
598.191
613.074
627.149
640.343
652.59
663.825
673.991
683.034
690.905
697.563
702.972
707.103
709.934
711.449
504.057
522.538
540.672
558.379
575.576
592.185
608.125
623.319
637.692
651.171
663.687
675.176
685.577
694.835
702.902
709.734
715.295
719.554
722.49
724.087
510.573
529.353
547.783
565.782
583.268
600.158
616.373
631.833
646.461
660.184
672.932
684.639
695.243
704.689
712.926
719.91
725.605
729.978
733.008
734.678
515.681
534.703
553.374
571.612
589.333
606.455
622.895
638.574
653.413
667.338
680.278
692.166
702.94
712.542
720.922
728.035
733.843
738.315
741.427
743.163
519.362
538.569
557.426
575.847
593.75
611.05
627.664
643.513
658.516
672.6
685.69
697.721
708.629
718.356
726.85
734.067
739.968
744.521
747.702
749.494
521.608
540.942
559.926
578.474
596.502
613.926
630.663
646.631
661.751
675.947
689.146
701.279
712.284
722.103
730.682
737.977
743.948
748.564
751.799
753.637
522.415
541.817
560.869
579.487
597.584
615.078
631.884
647.92
663.107
677.369
690.632
702.827
713.892
723.768
732.402
739.747
745.766
750.425
753.7
755.573
521.789
541.199
560.26
578.888
596.998
614.505
631.326
647.379
662.584
676.864
690.147
702.363
713.45
723.347
732.004
739.373
745.415
750.098
753.397
755.295
519.738
539.096
558.107
576.687
594.753
612.218
629
645.017
660.189
674.441
687.699
699.894
710.964
720.849
729.497
736.861
742.903
747.59
750.897
752.807
516.279
535.524
554.427
572.901
590.865
608.232
624.922
640.851
655.942
670.117
683.306
695.439
706.453
716.29
724.897
732.229
738.247
742.917
746.217
748.127
511.432
530.507
549.242
567.553
585.359
602.574
619.117
634.908
649.867
663.92
676.995
689.025
699.945
709.699
718.235
725.507
731.476
736.111
739.386
741.286
505.224
524.07
542.581
560.673
578.265
595.274
611.619
627.221
642.001
655.886
668.805
680.69
691.479
701.116
709.55
716.735
722.632
727.212
730.448
732.325
497.688
516.25
534.481
552.299
569.624
586.375
602.471
617.834
632.389
646.061
658.781
670.483
681.105
690.593
698.894
705.966
711.769
716.274
719.456
721.299
488.864
507.087
524.984
542.476
559.482
575.924
591.723
606.801
621.085
634.501
646.982
658.463
668.884
678.19
686.331
693.264
698.952
703.365
706.478
708.277
478.798
496.63
514.142
531.257
547.895
563.98
579.435
594.183
608.153
621.274
633.478
644.702
654.888
663.982
671.936
678.707
684.259
688.563
691.595
693.34
467.544
484.936
502.015
518.705
534.929
550.611
565.678
580.054
593.67
606.456
618.347
629.282
639.202
648.057
655.798
662.385
667.783
671.962
674.9
676.583
455.163
472.07
488.67
504.891
520.657
535.895
550.532
564.498
577.722
590.138
601.683
612.296
621.923
630.512
638.018
644.401
649.627
653.667
656.501
658.113
)
;
    }
    coldSide
    {
        type            mixed;
        refValue        uniform 300;
        refGradient     uniform 0;
        valueFraction   uniform 0.991591;
        source          uniform 0;
        value           nonuniform List<scalar> 
400
(
300.026
300.026
300.027
300.027
300.028
300.029
300.03
300.03
300.031
300.032
300.032
300.033
300.033
300.033
300.034
300.034
300.034
300.035
300.035
300.035
300.026
300.027
300.027
300.028
300.029
300.029
300.03
300.031
300.032
300.032
300.033
300.033
300.034
300.034
300.035
300.035
300.035
300.035
300.036
300.036