/*--------------------------------*- C++ -*----------------------------------*\
| =========                 |                                                 |
| \\      /  F ield         | OpenFOAM: The Open Source CFD Toolbox           |
|  \\    /   O peration     | Version:  2212                                  |
|   \\  /    A nd           | Website:  www.openfoam.com                      |
|    \\/     M anipulation  |                                                 |
\*---------------------------------------------------------------------------*/
FoamFile
{
    version     2.0;
    format      ascii;
    arch        "LSB;label=32;scalar=64";
    class       volScalarField;
    location    "./ITHACAoutput/true/1.8";
    object      error;
}
// * * * * * * * * * * * * * * * * * * * * * * * * * * * * * * * * * * * * * //

dimensions      [0 0 0 1 0 0 0];

internalField   nonuniform List<scalar> 
3200
(
1.81454
1.90855
2.37742
2.90406
3.70036
4.53625
5.33286
6.15661
6.69752
7.01727
7.02076
6.78977
6.13091
5.44934
4.687
3.93633
3.16393
2.61927
2.20005
2.0176
1.41538
1.66287
1.94948
2.48182
3.14725
3.82931
4.48568
5.22989
5.67975
5.9481
6.02128
5.74074
5.31895
4.64457
3.94903
3.19694
2.63483
2.20205
1.72782
1.63582
1.1938
1.23747
1.62068
2.04964
2.5678
3.15716
3.7799
4.36011
4.65136
4.98521
4.95441
4.76438
4.32985
3.73497
3.22907
2.63383
2.1733
1.68451
1.45259
1.26354
0.905917
1.09428
1.25851
1.63173
2.02274
2.594
3.01448
3.47202
3.82793
3.99073
4.02682
3.82557
3.50283
3.03556
2.58565
2.11423
1.73443
1.4023
1.091
0.991931
0.734386
0.783307
0.952476
1.25102
1.56696
1.91793
2.38556
2.65707
2.96265
3.15891
3.0883
2.96284
2.69816
2.3005
1.97452
1.66367
1.28292
1.06121
0.854279
0.751539
0.450212
0.512549
0.683788
0.850442
1.10118
1.35068
1.66974
1.95646
2.0862
2.12497
2.11677
2.05809
1.87864
1.63438
1.44038
1.14134
0.901505
0.746961
0.543346
0.560935
0.277262
0.292592
0.456795
0.517958
0.645206
0.78796
1.0289
1.13623
1.23972
1.27038
1.2452
1.18937
1.14615
1.02165
0.826057
0.646692
0.561575
0.43041
0.367093
0.366927
0.151008
0.0261297
0.138578
0.185813
0.19596
0.271034
0.312005
0.395601
0.461121
0.355191
0.367619
0.376812
0.371633
0.352775
0.271405
0.229425
0.182885
0.210229
0.07497
0.175251
1.12551
1.28485
1.59361
2.20546
2.97605
3.7226
4.60177
5.21967
5.90594
6.09463
6.25955
5.8716
5.38137
4.65535
3.8684
3.17451
2.43116
1.93436
1.55553
1.39666
0.950906
1.09694
1.39559
1.89595
2.51047
3.17434
3.90041
4.51642
5.01222
5.25501
5.34723
5.05216
4.55406
3.93382
3.26182
2.65416
1.99268
1.59867
1.17999
1.12379
0.804104
0.83935
1.07894
1.63528
2.05477
2.64069
3.24837
3.7278
4.15714
4.37807
4.45014
4.18013
3.85307
3.27369
2.7364
2.14188
1.69702
1.30766
0.956463
0.898905
0.645135
0.645264
0.920114
1.22274
1.63396
2.18253
2.62624
3.02062
3.39215
3.50712
3.54339
3.44184
3.08041
2.6475
2.1762
1.77638
1.3223
1.05149
0.84587
0.675842
0.452864
0.599722
0.651409
0.88574
1.26194
1.59649
2.07342
2.40812
2.61007
2.73491
2.78593
2.59795
2.3721
1.97809
1.67128
1.34899
0.963476
0.8106
0.637268
0.513723
0.298873
0.389076
0.520944
0.62978
0.931363
1.21297
1.37042
1.71036
1.88833
1.95642
1.96813
1.83432
1.64942
1.4844
1.19446
0.855086
0.719982
0.560945
0.428978
0.342983
0.137748
0.180857
0.280656
0.431568
0.570645
0.673845
0.877957
1.00399
1.18146
1.19823
1.18529
1.10505
1.03453
0.904657
0.774869
0.579902
0.429338
0.353013
0.24025
0.187279
0.0480552
0.128179
0.0872175
0.167495
0.133008
0.269698
0.279711
0.299477
0.400723
0.357467
0.397619
0.396396
0.349286
0.351285
0.243353
0.148084
0.0960319
0.13242
0.10222
0.108832
0.320643
0.515624
0.758008
1.32615
2.00917
2.69292
3.51676
4.23035
4.73316
5.05936
5.07057
4.7894
4.28805
3.63348
2.93361
2.16153
1.55151
1.00967
0.737274
0.614426
0.326004
0.438281
0.651386
1.08189
1.69678
2.31276
2.97763
3.62474
4.06079
4.34569
4.3754
4.0903
3.67083
3.0413
2.48852
1.82906
1.29744
0.840954
0.597607
0.472884
0.207881
0.330795
0.548111
0.907801
1.3734
1.9659
2.47327
3.02246
3.36981
3.6112
3.67156
3.3925
3.08146
2.55481
2.01291
1.51382
1.04409
0.753581
0.429927
0.363827
0.192433
0.194543
0.491354
0.689216
1.12888
1.53961
2.05773
2.4635
2.74371
3.00341
2.91302
2.7945
2.4142
2.02739
1.60304
1.22568
0.826233
0.511708
0.362652
0.298297
0.0981137
0.180793
0.251249
0.555692
0.836142
1.20034
1.49165
1.88984
2.10874
2.23922
2.35108
2.1677
1.86645
1.59274
1.26296
0.917166
0.617799
0.388107
0.292318
0.135918
0.0794122
0.165904
0.216482
0.358151
0.59436
0.897235
1.11253
1.368
1.54762
1.64471
1.5724
1.55996
1.33482
1.13465
0.828942
0.62515
0.392137
0.298093
0.148037
0.16323
0.0103898
0.12481
0.129047
0.240468
0.358841
0.565444
0.663828
0.800195
0.896322
0.967686
0.949865
0.912596
0.827066
0.668728
0.482544
0.374712
0.223551
0.191047
0.0628601
0.133413
0.00383855
0.00382489
0.077628
0.0706532
0.215694
0.162124
0.21404
0.317871
0.300903
0.349823
0.343905
0.267683
0.236276
0.257177
0.220976
0.11885
0.113179
0.0752169
0.013089
0.0604029
-0.332116
-0.310482
-0.0573035
0.424309
1.02519
1.73259
2.44665
3.15042
3.67791
3.95643
3.9794
3.65714
3.20704
2.61649
1.90448
1.26118
0.750398
0.26782
-0.0113003
-0.0556718
-0.387207
-0.232619
-0.0835487
0.313441
0.878399
1.49856
2.1047
2.60607
3.05598
3.25897
3.38641
3.19171
2.76479
2.14434
1.56728
1.0055
0.449713
0.218094
-0.1315
-0.160335
-0.284934
-0.228521
-0.102351
0.237324
0.747641
1.20094
1.75359
2.1821
2.58093
2.77091
2.7952
2.59132
2.25314
1.83723
1.33182
0.815089
0.389821
0.0390571
-0.122413
-0.125117
-0.287984
-0.171181
-0.000170771
0.184307
0.531633
0.994476
1.4109
1.76208
2.12351
2.29305
2.29669
2.08642
1.78003
1.46899
1.05622
0.69762
0.26752
0.061104
-0.115485
-0.117118
-0.195633
-0.145021
-0.00938934
0.202276
0.36699
0.71841
1.07849
1.37258
1.58727
1.67424
1.7331
1.60789
1.40385
1.08526
0.829127
0.490605
0.197528
0.0552569
-0.140754
-0.153417
-0.15133
-0.138613
-0.0110688
0.108752
0.258432
0.53304
0.750275
0.991744
1.1539
1.21328
1.23144
1.08619
1.02495
0.813967
0.605589
0.292156
0.109363
0.0219074
-0.0808114
-0.110496
-0.108181
-0.0785792
-0.0458268
0.0326902
0.188794
0.282663
0.419981
0.559598
0.742285
0.731176
0.711831
0.635225
0.59621
0.496595
0.335127
0.197721
0.117757
-0.0157046
-0.0780238
-0.0230613
-0.0014414
-0.013466
-0.0331728
0.0499885
0.0340123
0.0934985
0.164833
0.249998
0.240321
0.189928
0.210873
0.213584
0.200161
0.138334
0.106704
0.101365
-0.00909985
0.0691856
-0.0281782
0.0715087
-1.01593
-1.02029
-0.785962
-0.414452
0.179162
0.773923
1.42448
2.00101
2.57392
2.70346
2.85758
2.51698
2.10964
1.56143
0.890282
0.372452
-0.122338
-0.466697
-0.625497
-0.694733
-0.927764
-0.861358
-0.680843
-0.291579
0.129708
0.683219
1.24662
1.74444
2.08507
2.2819
2.32139
2.09588
1.84992
1.31888
0.755937
0.303784
-0.119701
-0.429259
-0.534562
-0.603626
-0.753788
-0.734595
-0.639637
-0.273935
0.0705971
0.486337
0.959165
1.48065
1.72616
1.95141
2.01141
1.77485
1.44327
1.09901
0.645609
0.277989
-0.13923
-0.47811
-0.579579
-0.560859
-0.625891
-0.661133
-0.460413
-0.241882
0.0887542
0.411867
0.820677
1.14436
1.46647
1.49877
1.5918
1.45311
1.17893
0.854348
0.478637
0.134817
-0.163936
-0.353821
-0.4683
-0.480411
-0.452199
-0.377525
-0.297145
-0.209342
0.0288121
0.405397
0.649402
0.793785
1.11971
1.14608
1.19897
1.08713
0.934666
0.706708
0.349174
0.0550681
-0.135778
-0.348135
-0.411736
-0.473096
-0.408616
-0.317013
-0.273014
-0.136417
0.0242378
0.2118
0.464435
0.616764
0.773566
0.799506
0.843811
0.752487
0.639585
0.418214
0.243556
0.0911061
-0.11296
-0.264191
-0.287845
-0.32297
-0.277665
-0.274793
-0.150251
-0.0908279
0.00153453
0.14949
0.303695
0.405094
0.486466
0.570712
0.537486
0.493137
0.335782
0.306768
0.160324
0.0656558
-0.090625
-0.161661
-0.204304
-0.187023
-0.0960106
-0.0393747
-0.0400203
-0.0290241
0.0678823
0.0621501
0.062975
0.17756
0.163601
0.146659
0.157935
0.178931
0.0930611
0.118685
0.0478584
0.0306485
0.00435583
0.0102366
0.00495767
0.0173525
-1.45885
-1.50946
-1.39516
-1.08674
-0.585433
-0.138432
0.513818
1.05357
1.42423
1.67396
1.70501
1.49298
1.06334
0.61507
0.116777
-0.36937
-0.708956
-1.04789
-1.15583
-1.05294
-1.25799
-1.33376
-1.20923
-0.922052
-0.538289
-0.123549
0.339128
0.90128
1.19091
1.41406
1.44518
1.22841
0.912037
0.506496
0.0443399
-0.418061
-0.763415
-0.998776
-1.09917
-1.0923
-1.14796
-1.10303
-1.04128
-0.759644
-0.512444
-0.13418
0.345158
0.659604
0.970771
1.15799
1.18962
1.02438
0.813758
0.388285
-0.0262027
-0.31331
-0.701609
-0.872391
-0.883986
-0.918421
-0.855916
-0.908943
-0.857588
-0.728712
-0.400486
-0.0461334
0.226018
0.560214
0.748827
0.882674
0.949309
0.836702
0.621551
0.283848
-0.0473865
-0.323658
-0.615382
-0.724099
-0.748633
-0.814412
-0.681638
-0.712843
-0.674335
-0.494814
-0.346491
-0.064718
0.134345
0.406459
0.494406
0.717823
0.69684
0.617252
0.454284
0.258433
-0.0643555
-0.253003
-0.421766
-0.576477
-0.609563
-0.625008
-0.526334
-0.52512
-0.526565
-0.371709
-0.261969
-0.066618
0.109663
0.300856
0.363669
0.477516
0.509001
0.419812
0.361936
0.254293
-0.000723084
-0.156423
-0.30459
-0.423974
-0.458864
-0.409957
-0.264042
-0.308425
-0.285396
-0.260953
-0.123163
-0.125583
0.0557227
0.116914
0.210484
0.250415
0.340254
0.280907
0.215811
0.0880743
-0.00560904
-0.113173
-0.276976
-0.239875
-0.184916
-0.227945
-0.0996287
-0.0964211
-0.0719138
-0.0999899
-0.0801792
-0.00607954
0.0445733
0.0366175
0.0298207
0.216691
0.182821
0.148161
-0.0173174
0.0255398
0.0636993
-0.0100972
-0.102533
-0.180913
-0.0389397
-0.143688
-1.76884
-1.90043
-1.75453
-1.64554
-1.27914
-0.799415
-0.318311
0.160923
0.500157
0.708282
0.740285
0.547911
0.244528
-0.172643
-0.644303
-1.01837
-1.3694
-1.52907
-1.53357
-1.44582
-1.57338
-1.72701
-1.62141
-1.50771
-1.18223
-0.789051
-0.381137
0.106768
0.33878
0.569073
0.616198
0.467084
0.179402
-0.160148
-0.606116
-0.904845
-1.14287
-1.41093
-1.45519
-1.31719
-1.3649
-1.42824
-1.39791
-1.23903
-0.998124
-0.651317
-0.317369
0.070959
0.295641
0.412803
0.466397
0.363743
0.0626791
-0.279383
-0.531541
-0.854843
-1.12749
-1.14306
-1.22079
-1.10856
-1.14422
-1.16551
-1.13757
-1.07475
-0.802889
-0.56925
-0.242472
-0.0174679
0.26662
0.318748
0.342508
0.251385
0.0516579
-0.231105
-0.495444
-0.719963
-0.851768
-0.979441
-1.05913
-1.02417
-0.914714
-0.87641
-0.875614
-0.883188
-0.611853
-0.36677
-0.181941
0.0514967
0.157654
0.255171
0.268739
0.197075
0.000466478
-0.199418
-0.42949
-0.5423
-0.733786
-0.768087
-0.746758
-0.729157
-0.680836
-0.730711
-0.632326
-0.599532
-0.47742
-0.362219
-0.156403
-0.0359148
0.0788093
0.248507
0.193582
0.145445
0.0211415
-0.0976722
-0.245243
-0.398922
-0.444542
-0.523435
-0.556804
-0.582646
-0.358501
-0.440108
-0.4083
-0.36669
-0.198964
-0.211728
-0.0704861
0.0325718
0.0790117
0.130497
0.0647786
0.0548782
0.0558945
-0.0996565
-0.14344
-0.279058
-0.293401
-0.351692
-0.302008
-0.272466
-0.0895114
-0.108837
-0.128621
-0.0351597
-0.0567194
-0.0452809
-0.0347028
0.0199578
-0.010643
0.015437
0.0167819
-0.0358162
0.0284431
-0.0804346
-0.0370818
-0.108084
-0.129444
-0.126767
-0.174735
-0.0877234
-2.04976
-2.16404
-2.12042
-2.05424
-1.79715
-1.40867
-0.99562
-0.594924
-0.339442
-0.117588
-0.203478
-0.225591
-0.519009
-0.858981
-1.12504
-1.49977
-1.6903
-1.79468
-1.71788
-1.57583
-1.73428
-1.83056
-1.88456
-1.80598
-1.60142
-1.20909
-0.827491
-0.606911
-0.265763
-0.180107
-0.136509
-0.220924
-0.401413
-0.709802
-1.09349
-1.39271
-1.53602
-1.58755
-1.63946
-1.50549
-1.42176
-1.59859
-1.6021
-1.50152
-1.37794
-1.02118
-0.806947
-0.541477
-0.330867
-0.0572624
-0.10964
-0.168267
-0.452489
-0.675002
-0.971131
-1.20461
-1.3158
-1.45756
-1.40384
-1.2025
-1.17188
-1.29624
-1.26602
-1.24702
-1.10295
-0.947573
-0.649435
-0.497133
-0.246887
-0.154689
-0.206971
-0.216581
-0.366966
-0.555959
-0.796845
-0.937139
-1.13359
-1.13358
-1.14402
-1.00376
-1.00188
-0.952853
-1.01667
-0.952408
-0.85067
-0.755386
-0.513738
-0.45213
-0.196049
-0.0903401
-0.127051
-0.218811
-0.333729
-0.506271
-0.710175
-0.771306
-0.872588
-0.932553
-0.869876
-0.860887
-0.681887
-0.745652
-0.735941
-0.702332
-0.647363
-0.525948
-0.344412
-0.274961
-0.220085
-0.0737463
-0.1239
-0.163761
-0.275622
-0.320559
-0.462038
-0.562282
-0.675535
-0.708739
-0.680051
-0.621176
-0.415111
-0.423798
-0.433614
-0.383462
-0.38128
-0.330851
-0.249032
-0.169542
-0.0495067
-0.0297088
-0.0111542
-0.0978346
-0.220975
-0.15858
-0.293104
-0.313663
-0.380642
-0.414665
-0.347581
-0.358975
-0.162926
-0.219081
-0.117267
-0.0971499
-0.0989044
-0.0629085
-0.0832
-0.0849236
-0.0584535
0.0228619
0.0124086
-0.0798125
0.0455528
-0.0968793
-0.0582467
-0.0918542
-0.180085
-0.0946008
-0.127971
-0.107096
-1.96255
-2.14819
-2.27392
-2.19873
-2.10906
-1.77755
-1.50114
-1.19389
-0.964735
-0.794346
-0.723778
-0.913217
-1.01866
-1.31039
-1.52204
-1.81607
-1.94559
-1.90982
-1.76472
-1.50337
-1.77129
-1.90882
-1.95691
-1.90382
-1.86385
-1.56942
-1.32249
-1.04514
-0.816519
-0.690699
-0.699262
-0.705484
-1.00229
-1.188
-1.48308
-1.65503
-1.71326
-1.66973
-1.58792
-1.39654
-1.46582
-1.56407
-1.7337
-1.66163
-1.60012
-1.35797
-1.08962
-0.873491
-0.73434
-0.60581
-0.626199
-0.726468
-0.822266
-1.04929
-1.22517
-1.34988
-1.49343
-1.48237
-1.33908
-1.29236
-1.14865
-1.29091
-1.39794
-1.37166
-1.27662
-1.09554
-0.971477
-0.772724
-0.618728
-0.489902
-0.498519
-0.57729
-0.660292
-0.820582
-1.02811
-1.12493
-1.19391
-1.22642
-1.14048
-1.02794
-0.893113
-0.982213
-1.1134
-1.06743
-1.0247
-0.874144
-0.74188
-0.669333
-0.463507
-0.430142
-0.366459
-0.496518
-0.480778
-0.643363
-0.771685
-0.92081
-0.945933
-1.02083
-0.903495
-0.867854
-0.645358
-0.692943
-0.751542
-0.722225
-0.726578
-0.662584
-0.447087
-0.348745
-0.342727
-0.28169
-0.280629
-0.340405
-0.394188
-0.465125
-0.529695
-0.6509
-0.693065
-0.696448
-0.634976
-0.62554
-0.407459
-0.407915
-0.432737
-0.44633
-0.447982
-0.417161
-0.30984
-0.269546
-0.214119
-0.227473
-0.188278
-0.244102
-0.250982
-0.314489
-0.331781
-0.418642
-0.406071
-0.424101
-0.415097
-0.337322
-0.110565
-0.17938
-0.229607
-0.208303
-0.140756
-0.126462
-0.116665
-0.116825
-0.030756
-0.0396049
-0.0534291
-0.17122
-0.0656458
-0.0321492
-0.108948
-0.147269
-0.162738
-0.0974477
-0.174782
-0.139941
-1.8051
-2.03682
-2.26655
-2.19477
-2.1807
-1.97137
-1.73745
-1.53165
-1.37311
-1.18627
-1.20171
-1.28226
-1.406
-1.532
-1.792
-1.92732
-1.91011
-1.87089
-1.59344
-1.28606
-1.60266
-1.87004
-1.95573
-1.94149
-1.97097
-1.70142
-1.62599
-1.36586
-1.2604
-1.04866
-1.09311
-1.13149
-1.18877
-1.43746
-1.48063
-1.64492
-1.63111
-1.68259
-1.43312
-1.16618
-1.2921
-1.51552
-1.60038
-1.75061
-1.68353
-1.5071
-1.28464
-1.13839
-1.01948
-0.952448
-0.895512
-0.990704
-1.06394
-1.2387
-1.36633
-1.52916
-1.44294
-1.446
-1.33659
-1.02505
-1.11563
-1.1405
-1.32086
-1.33979
-1.31553
-1.20585
-1.10606
-0.954392
-0.874222
-0.81131
-0.714359
-0.792141
-0.900402
-1.08261
-1.1677
-1.21368
-1.27197
-1.1738
-1.04102
-0.879516
-0.855302
-0.985074
-1.06092
-1.07295
-1.06281
-0.978717
-0.888428
-0.830711
-0.678922
-0.620078
-0.645004
-0.628226
-0.729528
-0.80339
-0.827662
-1.05731
-1.01296
-0.914343
-0.74473
-0.74518
-0.638845
-0.748313
-0.72868
-0.800715
-0.759717
-0.716617
-0.633246
-0.548596
-0.525172
-0.413098
-0.403643
-0.497345
-0.478501
-0.537928
-0.65481
-0.7098
-0.699134
-0.699193
-0.548152
-0.489302
-0.347224
-0.391754
-0.420851
-0.441209
-0.482545
-0.323059
-0.338272
-0.319125
-0.318077
-0.258437
-0.27031
-0.234727
-0.273085
-0.257332
-0.438069
-0.404301
-0.331452
-0.435521
-0.353057
-0.281657
-0.187303
-0.179016
-0.108461
-0.0966157
-0.170174
-0.130815
-0.133613
-0.119395
-0.121359
-0.0970127
-0.135133
-0.105801
-0.128791
-0.13867
-0.117327
-0.138687
-0.102135
-0.131593
-0.163914
-0.0639162
-1.31034
-1.70901
-2.05715
-2.11131
-2.1421
-2.02466
-1.88008
-1.70418
-1.53386
-1.52883
-1.35414
-1.49329
-1.54889
-1.65689
-1.7397
-1.74478
-1.7512
-1.56472
-1.25149
-0.956537
-1.15172
-1.4464
-1.68549
-1.81844
-1.79317
-1.70504
-1.62553
-1.47956
-1.41162
-1.29868
-1.34855
-1.38763
-1.34606
-1.3938
-1.65247
-1.55336
-1.56321
-1.3799
-1.13127
-0.897923
-1.07895
-1.30493
-1.42975
-1.55698
-1.59244
-1.44024
-1.42963
-1.37506
-1.1609
-1.08268
-1.06395
-1.18946
-1.2002
-1.29635
-1.34815
-1.36484
-1.32803
-1.21528
-0.960083
-0.764976
-0.826541
-0.96732
-1.1879
-1.25228
-1.28805
-1.20729
-1.17386
-1.01807
-0.94782
-0.957366
-0.928398
-1.00603
-0.964767
-1.0429
-1.1994
-1.1239
-1.18526
-1.06139
-0.803868
-0.689979
-0.609116
-0.818835
-0.892143
-0.971649
-0.97183
-0.982662
-0.868085
-0.823384
-0.780341
-0.742705
-0.783643
-0.737619
-0.763409
-0.795155
-0.893499
-0.927141
-0.881171
-0.811008
-0.632592
-0.489323
-0.490662
-0.538277
-0.613098
-0.690663
-0.762486
-0.691441
-0.67384
-0.576968
-0.586995
-0.49444
-0.545175
-0.600311
-0.535108
-0.649935
-0.617893
-0.629945
-0.609801
-0.584556
-0.477692
-0.347783
-0.250335
-0.359675
-0.405071
-0.489404
-0.362515
-0.402709
-0.434854
-0.33261
-0.339065
-0.326799
-0.322841
-0.264553
-0.322469
-0.411587
-0.363987
-0.412484
-0.344435
-0.382357
-0.349036
-0.287167
-0.10802
-0.115032
-0.0362098
-0.132647
-0.198578
-0.102598
-0.182597
-0.0729102
-0.1199
-0.15319
-0.000832662
-0.0974615
-0.106352
-0.095709
-0.11519
-0.127633
-0.0474385
-0.154734
-0.103491
-0.0590874
-0.686069
-1.10034
-1.49316
-1.73008
-1.85769
-1.74479
-1.77953
-1.65653
-1.50981
-1.46555
-1.3957
-1.38572
-1.45782
-1.59725
-1.51393
-1.47124
-1.33463
-1.00631
-0.720842
-0.329513
-0.703744
-0.952345
-1.30907
-1.52452
-1.57858
-1.65666
-1.55506
-1.44819
-1.40361
-1.28308
-1.2556
-1.293
-1.28288
-1.36556
-1.40712
-1.33364
-1.1827
-0.982275
-0.64938
-0.304796
-0.553336
-0.78787
-1.09864
-1.27248
-1.37839
-1.39386
-1.32326
-1.23349
-1.16023
-1.16427
-1.08868
-1.12358
-1.14862
-1.17135
-1.10579
-1.15455
-0.969405
-0.839777
-0.511888
-0.334332
-0.445497
-0.617597
-0.923013
-0.970717
-1.11773
-1.10899
-1.17036
-1.02361
-0.952722
-0.936801
-0.880475
-0.948732
-0.943768
-0.972247
-0.978978
-0.950208
-0.87251
-0.672229
-0.501505
-0.30384
-0.337784
-0.476282
-0.606086
-0.744702
-0.84237
-0.844259
-0.8915
-0.849369
-0.76452
-0.754138
-0.663042
-0.692031
-0.7243
-0.788251
-0.772606
-0.739522
-0.650754
-0.603647
-0.320483
-0.115357
-0.242782
-0.336701
-0.462744
-0.557623
-0.61436
-0.628672
-0.581717
-0.527231
-0.510127
-0.540986
-0.509155
-0.491063
-0.549637
-0.533663
-0.540421
-0.548752
-0.506301
-0.405714
-0.300086
-0.151005
-0.163494
-0.237217
-0.291872
-0.341325
-0.372871
-0.415663
-0.341874
-0.350038
-0.290787
-0.356052
-0.358043
-0.31116
-0.293065
-0.301428
-0.348782
-0.340595
-0.289394
-0.258039
-0.126662
-0.0931583
0.00511281
-0.0736146
0.0304936
-0.095397
-0.0876246
-0.153925
-0.128911
-0.0776093
-0.0926923
-0.100546
-0.106841
-0.040006
-0.113218
-0.102088
-0.0926761
-0.143046
-0.135369
-0.0809118
-0.0267166
-0.00600787
0.106558
-0.372625
-0.734842
-1.01584
-1.27721
-1.333
-1.41407
-1.28261
-1.31685
-1.19746
-1.15507
-1.20703
-1.12768
-1.18158
-1.05107
-0.904679
-0.678933
-0.357561
0.0723237
0.600478
0.123949
-0.275567
-0.701868
-0.938202
-1.05928
-1.19858
-1.1641
-1.15144
-1.01903
-1.11205
-0.990488
-1.01269
-1.02111
-1.027
-0.906773
-0.851862
-0.621957
-0.390348
-0.0282046
0.482529
0.0122571
-0.231998
-0.532319
-0.825393
-0.91159
-1.01656
-0.990276
-1.01499
-0.902261
-0.920502
-0.871785
-0.905404
-0.852211
-0.972211
-0.791274
-0.771778
-0.521356
-0.34408
0.0790476
0.343126
-0.0284446
-0.175785
-0.42444
-0.603598
-0.827003
-0.895294
-0.88421
-0.837064
-0.731231
-0.771276
-0.745183
-0.750253
-0.695064
-0.764134
-0.713971
-0.668678
-0.491823
-0.271991
-0.0307705
0.323186
0.0255701
-0.190626
-0.345597
-0.481115
-0.574995
-0.743564
-0.591698
-0.708489
-0.629435
-0.559697
-0.556125
-0.578052
-0.609198
-0.638863
-0.621278
-0.474986
-0.405108
-0.232269
-0.0143069
0.157334
-0.0228921
-0.0610614
-0.349325
-0.364685
-0.369314
-0.444242
-0.518284
-0.462395
-0.489003
-0.45329
-0.415001
-0.41733
-0.396245
-0.36932
-0.431891
-0.364378
-0.261792
-0.157203
-0.0714297
0.141858
-0.020076
-0.120068
-0.149222
-0.268993
-0.270807
-0.24068
-0.263847
-0.272994
-0.21834
-0.255917
-0.335208
-0.223568
-0.269623
-0.265103
-0.320262
-0.212915
-0.227722
-0.0881288
-0.0314893
0.121843
-0.0453814
-0.0690138
-0.133415
-0.0521978
-0.145741
-0.147251
-0.0791765
-0.110672
-0.0306383
-0.0495216
-0.0592255
-0.161976
-0.0450752
-0.115474
-0.170459
-0.0797343
-0.0991055
-0.00641414
0.0549806
-0.0107016
1.11962
0.582873
0.135595
-0.254789
-0.52323
-0.592864
-0.682704
-0.696161
-0.683082
-0.678057
-0.646935
-0.509929
-0.560321
-0.493075
-0.395532
-0.12684
0.0945687
0.569812
1.12869
1.6793
1.0306
0.629959
0.158213
-0.213612
-0.427054
-0.614623
-0.681282
-0.65501
-0.669281
-0.62224
-0.594915
-0.547346
-0.548042
-0.495961
-0.36691
-0.147953
0.106775
0.426452
0.962947
1.35861
0.820002
0.460792
0.0669667
-0.245056
-0.409533
-0.509769
-0.508057
-0.53766
-0.557592
-0.479569
-0.529448
-0.439279
-0.412702
-0.430247
-0.348634
-0.210076
0.0605404
0.431159
0.708176
1.16585
0.698087
0.462796
0.0628681
-0.195359
-0.314621
-0.355283
-0.460349
-0.495746
-0.490224
-0.435399
-0.466773
-0.374494
-0.43107
-0.297387
-0.335311
-0.163782
0.0532672
0.27509
0.600693
0.944024
0.563292
0.245536
0.015392
-0.0659872
-0.213602
-0.366836
-0.409794
-0.41721
-0.42373
-0.337616
-0.293091
-0.340329
-0.322766
-0.289828
-0.247713
-0.156281
0.0310572
0.148118
0.422862
0.696527
0.373681
0.208664
0.0167652
-0.0661043
-0.145844
-0.168575
-0.219977
-0.298049
-0.268813
-0.215173
-0.238768
-0.223576
-0.169924
-0.190756
-0.190144
-0.0543762
-0.0266672
0.105463
0.292808
0.460661
0.186119
0.109697
0.0133947
-0.015351
-0.12414
-0.172897
-0.165682
-0.129289
-0.213351
-0.188574
-0.135873
-0.128266
-0.191626
-0.10378
-0.0560658
-0.0783893
0.0018756
0.136443
0.215797
0.306486
0.0839015
0.00909822
0.0383841
-0.00161507
-0.0958078
-0.05139
0.00213239
0.00839556
-0.0360124
0.0162857
-0.0563825
-0.0310717
-0.009188
-0.097365
0.00748566
-0.0806376
-0.0236473
-0.00790985
0.0504925
0.157201
2.41885
1.91854
1.32087
0.843183
0.501093
0.380996
0.146151
0.0701633
0.0977334
0.0785378
0.168173
0.122952
0.269961
0.433557
0.570139
0.943537
1.27398
1.73402
2.40465
2.9701
2.0494
1.62271
1.09188
0.758282
0.507148
0.201111
0.100308
0.101249
0.00871841
-0.0244592
0.083569
0.0898523
0.187117
0.276291
0.469453
0.729346
1.11437
1.52267
1.97515
2.44287
1.71472
1.35052
0.970484
0.655618
0.328511
0.228055
0.0180333
0.0453078
-0.0242954
0.0116395
0.0178197
0.0893107
0.116363
0.202732
0.374344
0.547631
0.901846
1.21953
1.62193
2.087
1.45173
1.09804
0.758736
0.439419
0.263059
0.120827
0.088457
0.101725
0.0653027
0.02055
-0.0313846
-0.0410853
0.150241
0.159543
0.313376
0.419266
0.642408
1.01112
1.34546
1.65943
1.06581
0.874919
0.615827
0.3988
0.273842
0.0750333
-0.00881985
-0.00392181
0.0328752
-0.0119816
0.00174381
-0.0574737
0.0978481
0.129988
0.193722
0.323195
0.566885
0.806462
1.04918
1.30311
0.762678
0.706989
0.436459
0.249575
0.174353
0.0894784
0.018782
-0.0120616
0.0135065
-0.0255585
0.0498994
0.0320549
0.0110173
0.110687
0.145206
0.264127
0.360549
0.537198
0.743625
0.898731
0.463383
0.381377
0.24598
0.1287
0.0837341
0.0690254
0.0515264
-0.0343934
-0.059911
-0.00710733
-0.0486119
0.0353019
-0.067439
0.0407222
0.083026
0.0658815
0.173371
0.342927
0.439252
0.532016
0.180255
0.116732
0.0666395
0.0768678
-0.0165519
0.0183171
0.0330093
0.0635166
-0.00280681
-0.00300518
-0.0356016
0.105871
0.0237299
0.105262
0.0718634
0.0220331
0.0810583
0.136034
0.174408
0.124548
3.92637
3.28089
2.68826
2.16051
1.78398
1.53637
1.25938
1.16046
1.08565
1.11086
1.15607
1.2144
1.37864
1.5647
1.77041
2.09246
2.59659
3.14633
3.82893
4.42662
3.36609
2.88953
2.30569
1.87966
1.54149
1.32026
1.05464
1.01498
0.980834
0.960253
0.979364
1.01449
1.16861
1.36779
1.5246
1.84037
2.22286
2.67306
3.26096
3.81049
2.85703
2.46102
1.88579
1.52709
1.33785
1.11322
0.875635
0.853244
0.786424
0.843427
0.85086
0.845693
0.888056
1.15224
1.24266
1.49446
1.85167
2.25657
2.7137
3.11556
2.25949
1.93314
1.68362
1.22063
1.04546
0.865253
0.745965
0.733921
0.590929
0.641941
0.66037
0.640253
0.775642
0.849357
0.988414
1.27104
1.48006
1.79339
2.15591
2.49767
1.79855
1.58158
1.32077
1.04478
0.810345
0.647396
0.624789
0.523055
0.545455
0.451658
0.480253
0.535186
0.594941
0.610351
0.817911
0.93485
1.19824
1.39072
1.68987
2.03686
1.25621
1.09216
0.889017
0.742032
0.535094
0.432522
0.386035
0.270269
0.34082
0.401266
0.368131
0.342902
0.472514
0.416132
0.507598
0.656681
0.845057
1.00953
1.24923
1.33967
0.792292
0.573862
0.46491
0.499802
0.365976
0.258152
0.278136
0.134904
0.179905
0.15546
0.212995
0.228114
0.249701
0.296448
0.36198
0.384299
0.520933
0.635953
0.70437
0.797975
0.312261
0.253355
0.182816
0.162677
0.187499
0.0762416
0.0406064
0.113779
0.0638787
0.136247
0.0699381
0.0534373
0.143877
0.169735
0.171248
0.0961548
0.1627
0.208694
0.228462
0.292863
5.58091
5.01555
4.21747
3.69023
3.31554
2.90979
2.62697
2.50969
2.40079
2.42432
2.50408
2.51738
2.69646
2.8996
3.13366
3.56618
4.11646
4.75009
5.48248
6.10872
4.83472
4.32148
3.67488
3.15407
2.73865
2.53749
2.2733
2.06258
2.10569
2.04126
2.12205
2.17636
2.26892
2.4456
2.78853
3.08319
3.51118
4.04863
4.68818
5.27514
4.14124
3.63092
3.09138
2.66474
2.38524
2.08309
1.93612
1.80045
1.73518
1.70683
1.70643
1.7844
1.8922
2.08542
2.29004
2.55019
2.93565
3.45137
3.95485
4.41721
3.32023
2.96307
2.56787
2.14631
1.93492
1.69062
1.48729
1.4417
1.40039
1.33994
1.4061
1.54476
1.53892
1.65941
1.85363
2.09048
2.36353
2.78228
3.21203
3.55948
2.55939
2.28888
1.97088
1.75672
1.50135
1.37142
1.20221
1.14462
1.05306
1.1274
1.06382
1.12206
1.18736
1.30011
1.41687
1.60764
1.88997
2.15352
2.46287
2.76799
1.80895
1.61727
1.38251
1.2198
1.03218
0.895571
0.848095
0.830182
0.77005
0.785363
0.729644
0.782782
0.894524
0.89238
1.00754
1.15788
1.27616
1.43787
1.73809
1.97459
1.13162
0.993191
0.83093
0.734411
0.644931
0.590981
0.530416
0.490268
0.470193
0.442729
0.462071
0.480303
0.482939
0.550633
0.552666
0.699274
0.756545
0.884989
1.01283
1.22902
0.407895
0.368956
0.305206
0.198992
0.238853
0.211391
0.169528
0.212327
0.10561
0.098222
0.222084
0.131735
0.13516
0.222474
0.178789
0.157001
0.282009
0.297803
0.362784
0.445369
7.46264
6.75623
5.98323
5.38116
4.92285
4.50178
4.19952
3.99104
3.90154
3.90258
3.92611
4.05963
4.20226
4.44588
4.77396
5.21785
5.77927
6.47176
7.26217
7.9583
6.42319
5.79789
5.16167
4.66285
4.19669
3.8566
3.54703
3.4578
3.30739
3.31466
3.34928
3.47121
3.63453
3.83239
4.12668
4.47209
4.93463
5.56049
6.20313
6.80055
5.34619
4.86223
4.41454
3.89726
3.61568
3.22736
3.00983
2.86431
2.7913
2.81223
2.79394
2.87364
3.0174
3.27132
3.59139
3.74516
4.19061
4.63843
5.18255
5.71545
4.42086
4.00498
3.62837
3.27979
2.87303
2.66175
2.49202
2.3169
2.26842
2.27316
2.23659
2.34803
2.48486
2.60656
2.84808
3.09547
3.34426
3.82771
4.25497
4.68728
3.40465
3.08505
2.79477
2.54274
2.16199
2.08515
1.9388
1.77314
1.8144
1.73927
1.78407
1.77675
1.89332
1.93413
2.15458
2.35731
2.65314
2.90804
3.28208
3.57954
2.38842
2.22085
1.97804
1.80989
1.56361
1.43595
1.35581
1.22378
1.22577
1.21722
1.29327
1.3203
1.37093
1.39218
1.54978
1.69271
1.88405
2.16386
2.28148
2.54835
1.40157
1.29531
1.16997
1.04515
1.00402
0.844038
0.79485
0.773222
0.740425
0.739269
0.736408
0.85378
0.857892
0.815569
0.920124
0.969448
1.1219
1.23928
1.39067
1.55352
0.47328
0.470106
0.399906
0.376098
0.285687
0.319047
0.258643
0.309923
0.285932
0.199115
0.271771
0.227434
0.22395
0.383425
0.32956
0.382574
0.379869
0.410003
0.46629
0.52601
9.25778
8.54436
7.79582
7.12808
6.59808
6.07205
5.85939
5.70026
5.51798
5.41544
5.46399
5.62828
5.78655
6.16204
6.46959
6.89786
7.57661
8.31776
9.11342
9.89259
7.97985
7.38436
6.76375
6.1454
5.62528
5.29399
4.99911
4.73713
4.68399
4.66941
4.61098
4.74919
4.96061
5.19883
5.54556
5.93503
6.444
7.08945
7.73184
8.39529
6.67906
6.1664
5.60024
5.15438
4.70637
4.40221
4.20842
4.01431
4.01386
3.9423
3.95423
3.9798
4.07754
4.34756
4.56186
4.95586
5.37408
5.94089
6.5046
7.03374
5.41856
5.01614
4.59148
4.16466
3.80726
3.62018
3.41523
3.23765
3.17707
3.12067
3.10674
3.18718
3.33903
3.57061
3.73007
3.98797
4.30862
4.77101
5.28691
5.66178
4.17168
3.84779
3.47112
3.19513
3.03102
2.81535
2.64204
2.48551
2.42852
2.37191
2.44514
2.45751
2.55486
2.67799
2.90768
3.13801
3.33619
3.7898
4.06329
4.38192
2.94268
2.74597
2.59404
2.36593
2.10887
1.97168
1.78675
1.82592
1.68463
1.701
1.70829
1.69148
1.8048
1.94226
2.00914
2.19457
2.41837
2.63885
2.85371
3.12996
1.73049
1.7043
1.46416
1.34405
1.2519
1.1989
1.10853
1.0975
1.00851
0.998711
1.0118
1.05467
1.10858
1.14309
1.21768
1.30109
1.43807
1.57543
1.75181
1.81108
0.615206
0.488877
0.52517
0.454814
0.410729
0.408302
0.342752
0.338767
0.364348
0.314932
0.309823
0.335544
0.319887
0.390722
0.395541
0.416963
0.423548
0.534206
0.60284
0.634593
10.7695
9.9937
9.25818
8.54724
7.9933
7.54259
7.18515
6.96477
6.84778
6.77283
6.75817
6.95456
7.11988
7.40587
7.80721
8.29206
8.95262
9.69383
10.6015
11.3668
9.20853
8.55132
7.87882
7.27256
6.78879
6.41875
6.11557
5.87765
5.75233
5.71209
5.75561
5.84125
6.05617
6.22472
6.63339
7.06701
7.68412
8.31061
8.91044
9.60204
7.63214
7.10365
6.53049
6.03193
5.57293
5.33885
5.05453
4.90353
4.70437
4.73745
4.76707
4.86275
4.93259
5.22416
5.49692
5.81317
6.38905
6.86749
7.44782
8.02787
6.19569
5.75106
5.24324
4.88319
4.60763
4.2794
4.06984
3.91306
3.84759
3.80459
3.81618
3.87181
4.00204
4.1793
4.42402
4.71895
5.10655
5.59523
6.08603
6.4609
4.73141
4.46825
4.06899
3.72988
3.51695
3.341
3.12357
2.9916
2.91888
2.93281
2.88566
3.00749
3.10575
3.25409
3.43644
3.63983
3.89027
4.26868
4.71593
5.05981
3.36406
3.12147
2.80876
2.81421
2.43408
2.35134
2.17454
2.13087
2.07888
1.98252
2.05851
2.10198
2.15069
2.2644
2.44122
2.5398
2.81173
3.04281
3.35945
3.51367
1.99956
1.86608
1.72764
1.59191
1.45792
1.36626
1.32021
1.26646
1.19187
1.24653
1.32805
1.29473
1.28554
1.35403
1.43672
1.53756
1.66195
1.82598
1.8763
2.08085
0.705352
0.691826
0.536319
0.514147
0.544381
0.419997
0.364412
0.439064
0.414088
0.412422
0.321186
0.418641
0.440749
0.468204
0.440029
0.516637
0.563781
0.585577
0.655257
0.684389
)
;

boundaryField
{
    hotSide
    {
        type            calculated;
        value           nonuniform List<scalar> 
400
(
2.59935
1.90817
1.09909
0.440133
-0.251678
-0.704202
-1.02517
-1.31818
-1.24391
-1.10001
-0.619126
-0.00882559
0.769946
1.76947
3.05566
4.55078
6.19369
8.06465
9.84997
11.3528
2.76538