/*--------------------------------*- C++ -*----------------------------------*\
| =========                 |                                                 |
| \\      /  F ield         | OpenFOAM: The Open Source CFD Toolbox           |
|  \\    /   O peration     | Version:  2212                                  |
|   \\  /    A nd           | Website:  www.openfoam.com                      |
|    \\/     M anipulation  |                                                 |
\*---------------------------------------------------------------------------*/
FoamFile
{
    version     2.0;
    format      ascii;
    arch        "LSB;label=32;scalar=64";
    class       volScalarField;
    location    "0";
    object      T;
}
// * * * * * * * * * * * * * * * * * * * * * * * * * * * * * * * * * * * * * //

dimensions      [0 0 0 1 0 0 0];

internalField   nonuniform List<scalar> 
3200
(
345.912
345.096
344.634
344.286
344.767
345.378
346.175
346.83
347.378
347.811
347.934
347.581
346.771
346.026
344.9
343.828
343.009
342.724
343.118
343.881
339.685
339.033
338.628
338.339
338.735
339.275
339.977
340.534
341.013
341.38
341.492
341.197
340.516
339.851
338.884
337.991
337.247
337.013
337.369
337.976
333.526
332.992
332.659
332.404
332.75
333.225
333.78
334.264
334.67
334.971
335.082
334.835
334.254
333.696
332.896
332.163
331.512
331.31
331.64
332.113
327.385
326.955
326.717
326.49
326.785
327.18
327.609
327.996
328.372
328.589
328.685
328.485
328.015
327.534
326.919
326.332
325.775
325.612
325.906
326.26
321.283
320.929
320.778
320.597
320.822
321.148
321.459
321.791
322.077
322.22
322.276
322.146
321.766
321.394
320.939
320.474
320.051
319.914
320.149
320.422
315.185
314.949
314.848
314.702
314.878
315.117
315.322
315.594
315.778
315.865
315.9
315.833
315.536
315.278
314.988
314.635
314.341
314.238
314.39
314.58
309.115
308.981
308.935
308.836
308.934
309.07
309.188
309.373
309.475
309.533
309.547
309.501
309.326
309.176
309.026
308.794
308.616
308.557
308.628
308.764
303.05
303.004
303.003
302.952
302.987
303.038
303.081
303.15
303.177
303.187
303.2
303.188
303.131
303.066
303.023
302.95
302.898
302.871
302.883
302.936
346.01
344.985
344.533
344.448
345.008
345.705
346.484
347.17
347.918
348.318
348.418
348.104
347.325
346.263
345.251
344.049
343.291
342.99
343.219
344.019
339.765
338.949
338.563
338.482
338.963
339.589
340.24
340.8
341.445
341.818
341.915
341.623
340.961
340.066
339.173
338.146
337.496
337.24
337.45
338.098
333.59
332.945
332.604
332.555
332.95
333.503
334.004
334.472
335.025
335.352
335.425
335.18
334.609
333.89
333.11
332.275
331.721
331.478
331.663
332.207
327.448
326.942
326.671
326.607
326.958
327.419
327.787
328.154
328.637
328.908
328.961
328.743
328.283
327.709
327.076
326.423
325.939
325.73
325.922
326.312
321.32
320.933
320.759
320.672
320.963
321.314
321.576
321.882
322.275
322.472
322.514
322.353
321.975
321.549
321.053
320.542
320.177
320.01
320.179
320.453
315.204
314.934
314.854
314.748
314.975
315.212
315.398
315.65
315.92
316.065
316.065
315.975
315.686
315.396
315.041
314.68
314.419
314.278
314.441
314.612
309.127
308.961
308.937
308.846
308.979
309.122
309.245
309.412
309.571
309.647
309.653
309.594
309.417
309.24
309.025
308.815
308.664
308.58
308.681
308.77
303.052
303.007
302.998
302.961
303.008
303.051
303.099
303.165
303.216
303.232
303.23
303.22
303.161
303.1
303.02
302.956
302.902
302.876
302.915
302.939
346.342
345.282
344.806
344.875
345.407
346.199
347.11
347.83
348.659
349.094
349.304
348.864
348.062
347.02
345.891
344.63
343.75
343.475
343.66
344.381
340.069
339.18
338.816
338.842
339.302
339.994
340.756
341.389
342.097
342.471
342.698
342.28
341.588
340.694
339.71
338.644
337.881
337.661
337.816
338.421
333.854
333.141
332.83
332.835
333.24
333.82
334.451
334.991
335.575
335.88
336.103
335.714
335.142
334.394
333.548
332.662
332.036
331.852
331.97
332.471
327.67
327.115
326.871
326.856
327.178
327.653
328.168
328.597
329.084
329.318
329.516
329.179
328.729
328.114
327.409
326.7
326.192
326.064
326.153
326.545
321.503
321.071
320.908
320.895
321.134
321.495
321.907
322.229
322.612
322.799
322.952
322.668
322.323
321.846
321.321
320.776
320.365
320.28
320.343
320.606
315.332
315.032
314.959
314.945
315.121
315.355
315.63
315.866
316.151
316.287
316.383
316.2
315.942
315.588
315.24
314.852
314.537
314.496
314.528
314.72
309.192
309.006
308.988
308.988
309.085
309.228
309.383
309.536
309.714
309.791
309.833
309.738
309.565
309.361
309.158
308.904
308.723
308.706
308.739
308.835
303.079
303.008
303.022
303.018
303.053
303.097
303.144
303.204
303.257
303.287
303.295
303.266
303.194
303.135
303.07
302.977
302.919
302.923
302.927
302.961
346.734
345.827
345.31
345.303
345.878
346.75
347.774
348.78
349.535
350.227
350.197
349.904
349.042
347.966
346.691
345.37
344.517
344.124
344.111
344.842
340.439
339.68
339.236
339.221
339.709
340.463
341.346
342.195
342.868
343.451
343.421
343.175
342.434
341.497
340.392
339.279
338.551
338.191
338.211
338.805
334.178
333.558
333.16
333.156
333.561
334.214
334.953
335.646
336.224
336.689
336.691
336.472
335.851
335.065
334.133
333.2
332.589
332.285
332.336
332.783
327.928
327.444
327.096
327.097
327.461
327.987
328.578
329.154
329.593
329.973
329.995
329.831
329.289
328.655
327.911
327.136
326.636
326.396
326.479
326.797
321.698
321.319
321.073
321.05
321.372
321.771
322.213
322.679
322.986
323.307
323.318
323.193
322.765
322.254
321.714
321.082
320.713
320.533
320.623
320.852
315.498
315.203
315.047
315.039
315.268
315.54
315.873
316.192
316.429
316.667
316.648
316.559
316.279
315.881
315.513
315.052
314.781
314.678
314.742
314.896
309.311
309.113
309.047
309.023
309.178
309.323
309.538
309.716
309.867
310.035
310.007
309.952
309.779
309.538
309.306
309.034
308.876
308.82
308.867
308.95
303.113
303.054
303.038
303.019
303.077
303.127
303.193
303.252
303.31
303.366
303.356
303.335
303.273
303.202
303.108
303.029
302.977
302.962
302.973
303.009
347.179
346.406
345.894
346.067
346.668
347.592
348.65
349.703
350.599
351.266
351.343
351.037
350.204
348.968
347.734
346.276
345.469
344.84
344.937
345.654
340.812
340.148
339.708
339.889
340.403
341.195
342.098
343.023
343.779
344.361
344.418
344.155
343.454
342.338
341.303
340.062
339.381
338.826
338.913
339.528
334.472
333.936
333.57
333.73
334.182
334.818
335.589
336.384
336.99
337.507
337.525
337.314
336.723
335.773
334.91
333.862
333.296
332.827
332.906
333.421
328.159
327.747
327.466
327.582
327.973
328.456
329.092
329.772
330.246
330.662
330.663
330.487
330.005
329.258
328.527
327.689
327.222
326.822
326.927
327.348
321.884
321.595
321.367
321.44
321.741
322.128
322.632
323.167
323.512
323.845
323.81
323.704
323.331
322.761
322.165
321.523
321.17
320.851
320.953
321.29
315.628
315.43
315.269
315.312
315.515
315.813
316.169
316.564
316.82
317.042
317.01
316.927
316.653
316.259
315.85
315.37
315.117
314.882
314.971
315.251
309.385
309.26
309.167
309.196
309.316
309.493
309.72
309.946
310.117
310.245
310.219
310.159
309.995
309.764
309.52
309.225
309.088
308.922
308.995
309.176
303.136
303.096
303.071
303.073
303.127
303.177
303.254
303.338
303.386
303.439
303.434
303.403
303.344
303.269
303.187
303.097
303.052
302.996
303.008
303.077
347.979
347.198
346.655
346.881
347.481
348.47
349.638
350.763
351.588
352.377
352.554
352.168
351.437
350.183
348.853
347.528
346.431
345.821
346.003
346.558
341.495
340.844
340.379
340.564
341.103
341.956
342.964
343.932
344.611
345.308
345.451
345.137
344.505
343.417
342.292
341.129
340.2
339.679
339.826
340.293
335.041
334.524
334.14
334.284
334.739
335.471
336.312
337.158
337.687
338.281
338.393
338.144
337.595
336.672
335.757
334.754
333.991
333.559
333.673
334.065
328.612
328.237
327.936
328.023
328.413
329.029
329.687
330.416
330.81
331.27
331.349
331.181
330.726
329.967
329.236
328.423
327.811
327.455
327.564
327.834
322.241
321.958
321.717
321.784
322.08
322.583
323.081
323.666
323.926
324.308
324.35
324.242
323.879
323.307
322.728
322.097
321.643
321.351
321.434
321.612
315.912
315.691
315.521
315.551
315.776
316.147
316.481
316.932
317.085
317.346
317.393
317.305
317.053
316.643
316.235
315.778
315.458
315.24
315.324
315.418
309.569
309.427
309.328
309.335
309.474
309.706
309.903
310.198
310.246
310.414
310.449
310.385
310.218
309.991
309.762
309.465
309.288
309.162
309.201
309.249
303.203
303.159
303.112
303.131
303.168
303.26
303.329
303.419
303.436
303.481
303.507
303.474
303.421
303.351
303.268
303.169
303.109
303.067
303.071
303.093
348.963
348.171
347.657
347.794
348.573
349.417
350.726
351.801
352.715
353.535
353.802
353.482
352.636
351.536
350.03
348.707
347.649
347.126
347.187
347.699
342.378
341.704
341.239
341.374
342.028
342.762
343.895
344.833
345.626
346.31
346.522
346.247
345.547
344.573
343.299
342.163
341.242
340.804
340.836
341.278
335.818
335.253
334.857
334.964
335.525
336.136
337.111
337.899
338.565
339.112
339.275
339.06
338.502
337.661
336.593
335.659
334.881
334.498
334.519
334.85
329.259
328.835
328.518
328.578
329.043
329.536
330.347
330.985
331.531
331.963
332.087
331.927
331.489
330.788
329.903
329.148
328.536
328.188
328.232
328.469
322.727
322.425
322.185
322.205
322.574
322.972
323.603
324.095
324.5
324.832
324.936
324.818
324.488
323.953
323.243
322.661
322.188
321.9
321.98
322.148
316.22
316.024
315.859
315.865
316.129
316.413
316.845
317.195
317.475
317.722
317.81
317.723
317.473
317.119
316.602
316.179
315.853
315.639
315.712
315.822
309.736
309.629
309.541
309.526
309.687
309.871
310.105
310.307
310.471
310.635
310.689
310.645
310.482
310.275
309.975
309.713
309.517
309.38
309.44
309.503
303.265
303.218
303.198
303.188
303.243
303.303
303.387
303.444
303.503
303.562
303.58
303.565
303.519
303.436
303.347
303.26
303.192
303.142
303.171
303.192
349.835
349.123
348.759
348.906
349.561
350.389
351.703
352.825
354.014
354.729
355.032
354.74
353.855
352.78
351.33
349.993
348.926
348.291
348.394
348.887
343.117
342.522
342.226
342.336
342.901
343.597
344.757
345.713
346.734
347.335
347.6
347.356
346.578
345.671
344.393
343.257
342.342
341.776
341.887
342.286
336.44
335.965
335.696
335.789
336.276
336.859
337.826
338.634
339.493
339.995
340.2
340
339.349
338.588
337.478
336.556
335.789
335.316
335.413
335.699
329.809
329.402
329.189
329.268
329.669
330.149
330.931
331.581
332.282
332.686
332.826
332.692
332.19
331.52
330.628
329.868
329.262
328.879
328.954
329.16
323.177
322.849
322.715
322.753
323.081
323.446
324.049
324.539
325.088
325.413
325.487
325.406
325.037
324.503
323.796
323.233
322.723
322.46
322.52
322.655
316.567
316.319
316.235
316.259
316.504
316.755
317.166
317.518
317.919
318.143
318.19
318.13
317.884
317.491
316.988
316.608
316.217
316.043
316.09
316.172
309.951
309.803
309.74
309.764
309.91
310.067
310.302
310.519
310.743
310.889
310.917
310.87
310.754
310.498
310.205
309.961
309.729
309.64
309.664
309.705
303.329
303.28
303.26
303.273
303.319
303.372
303.45
303.531
303.599
303.654
303.654
303.635
303.603
303.517
303.424
303.334
303.263
303.235
303.235
303.255
350.886
350.337
350.149
350.178
350.708
351.456
352.833
353.981
355.062
355.873
356.286
355.924
355.145
353.959
352.645
351.21
350.204
349.72
349.628
350.051
344.029
343.569
343.407
343.45
343.921
344.529
345.72
346.702
347.648
348.319
348.682
348.351
347.684
346.667
345.561
344.314
343.425
343.022
342.947
343.287
337.205
336.831
336.681
336.755
337.141
337.632
338.647
339.456
340.261
340.811
341.108
340.836
340.275
339.426
338.493
337.446
336.693
336.367
336.301
336.574
330.431
330.114
329.992
330.049
330.37
330.752
331.612
332.252
332.881
333.349
333.592
333.352
332.897
332.225
331.44
330.617
329.993
329.729
329.687
329.885
323.658
323.418
323.303
323.363
323.631
323.911
324.588
325.102
325.554
325.915
326.085
325.921
325.579
325.064
324.419
323.818
323.315
323.106
323.103
323.24
316.893
316.733
316.637
316.691
316.881
317.083
317.55
317.935
318.238
318.481
318.611
318.528
318.288
317.9
317.45
317.027
316.643
316.485
316.537
316.57
310.137
310.043
309.99
310.002
310.138
310.26
310.53
310.781
310.953
311.098
311.167
311.12
310.962
310.755
310.479
310.224
309.984
309.896
309.938
309.946
303.395
303.375
303.348
303.346
303.396
303.446
303.524
303.619
303.662
303.714
303.733
303.721
303.681
303.598
303.512
303.428
303.348
303.318
303.332
303.339
352.064
351.426
351.197
351.296
351.796
352.645
353.857
354.992
356.146
356.799
357.328
357.174
356.418
355.137
353.836
352.441
351.536
350.929
350.88
351.284
345.062
344.532
344.324
344.412
344.855
345.562
346.616
347.59
348.595
349.131
349.566
349.456
348.782
347.721
346.573
345.379
344.593
344.057
344.047
344.343
338.094
337.633
337.463
337.54
337.927
338.505
339.388
340.226
341.079
341.5
341.884
341.768
341.204
340.356
339.338
338.335
337.701
337.247
337.235
337.445
331.139
330.746
330.641
330.693
331.028
331.468
332.198
332.885
333.568
333.909
334.216
334.128
333.659
333.014
332.122
331.322
330.836
330.448
330.455
330.598
324.186
323.862
323.839
323.866
324.12
324.469
325.018
325.595
326.099
326.341
326.597
326.527
326.146
325.676
324.977
324.343
323.959
323.676
323.692
323.788
317.277
317.012
317.056
317.058
317.217
317.483
317.865
318.307
318.638
318.811
318.998
318.933
318.655
318.346
317.844
317.404
317.099
316.909
316.92
316.988
310.382
310.205
310.252
310.242
310.325
310.494
310.727
311.01
311.195
311.299
311.414
311.367
311.201
311.026
310.716
310.45
310.261
310.158
310.153
310.208
303.477
303.421
303.439
303.431
303.46
303.518
303.591
303.688
303.753
303.796
303.826
303.811
303.745
303.705
303.581
303.499
303.445
303.41
303.409
303.429
353.249
352.623
352.265
352.412
352.912
353.849
354.851
355.847
357.006
357.84
358.25
358.067
357.357
356.113
354.984
353.604
352.878
352.295
352.259
352.706
346.078
345.574
345.228
345.387
345.835
346.617
347.471
348.322
349.307
350.019
350.368
350.211
349.599
348.543
347.553
346.371
345.757
345.254
345.206
345.575
338.935
338.531
338.259
338.405
338.769
339.412
340.119
340.817
341.68
342.271
342.54
342.42
341.899
341.044
340.158
339.185
338.67
338.238
338.202
338.499
331.816
331.488
331.312
331.417
331.709
332.212
332.821
333.352
334.065
334.533
334.761
334.653
334.25
333.554
332.805
332.042
331.609
331.242
331.247
331.47
324.731
324.473
324.352
324.441
324.662
325.039
325.55
325.9
326.475
326.85
327.011
326.94
326.633
326.076
325.498
324.911
324.572
324.308
324.306
324.475
317.646
317.486
317.4
317.464
317.642
317.881
318.273
318.475
318.916
319.173
319.286
319.22
319.025
318.613
318.219
317.802
317.557
317.369
317.36
317.493
310.59
310.493
310.456
310.489
310.593
310.734
310.99
311.088
311.357
311.511
311.574
311.533
311.405
311.158
310.944
310.678
310.541
310.431
310.435
310.509
303.558
303.516
303.499
303.525
303.549
303.594
303.689
303.715
303.816
303.855
303.876
303.864
303.807
303.737
303.657
303.585
303.537
303.497
303.493
303.519
354.39
353.694
353.418
353.617
354.121
354.887
355.872
356.852
357.919
358.602
359.234
358.955
358.122
357.074
356.023
354.809
354.128
353.591
353.572
353.97
347.058
346.494
346.247
346.442
346.854
347.508
348.354
349.188
350.123
350.696
351.239
351
350.292
349.382
348.472
347.442
346.834
346.362
346.324
346.681
339.748
339.304
339.098
339.266
339.632
340.151
340.889
341.551
342.356
342.851
343.285
343.095
342.487
341.735
340.941
340.102
339.588
339.164
339.137
339.453
332.45
332.129
331.992
332.092
332.42
332.823
333.468
333.958
334.621
335.028
335.381
335.219
334.719
334.101
333.453
332.774
332.362
331.99
331.981
332.244
325.195
324.983
324.883
324.956
325.219
325.533
326.031
326.391
326.91
327.238
327.49
327.379
327.001
326.499
326.001
325.481
325.148
324.849
324.841
325.072
318.013
317.849
317.771
317.837
318.017
318.24
318.595
318.856
319.226
319.444
319.611
319.557
319.283
318.907
318.571
318.185
317.955
317.731
317.741
317.911
310.815
310.712
310.684
310.705
310.823
310.973
311.167
311.327
311.551
311.669
311.76
311.74
311.584
311.345
311.154
310.901
310.767
310.641
310.648
310.761
303.621
303.601
303.583
303.581
303.636
303.682
303.747
303.799
303.873
303.911
303.93
303.933
303.873
303.796
303.743
303.657
303.599
303.565
303.562
303.608
355.515
354.929
354.579
354.703
355.193
355.803
356.776
357.848
358.762
359.41
359.853
359.765
359.034
358.046
357.072
355.97
355.392
354.871
354.814
355.321
348.057
347.537
347.275
347.359
347.802
348.327
349.162
350.047
350.833
351.4
351.801
351.712
351.064
350.185
349.366
348.433
347.906
347.463
347.416
347.847
340.618
340.206
339.975
340.042
340.449
340.866
341.558
342.272
342.911
343.433
343.779
343.706
343.15
342.394
341.682
340.935
340.475
340.097
340.077
340.411
333.191
332.903
332.686
332.735
333.108
333.433
333.974
334.538
335.035
335.496
335.781
335.724
335.241
334.635
334.044
333.459
333.078
332.778
332.781
333.008
325.806
325.605
325.392
325.45
325.752
326.004
326.407
326.859
327.188
327.559
327.808
327.778
327.393
326.915
326.451
326.008
325.713
325.465
325.508
325.663
318.43
318.313
318.13
318.184
318.404
318.588
318.847
319.198
319.406
319.676
319.838
319.857
319.571
319.231
318.886
318.583
318.372
318.173
318.24
318.327
311.067
311
310.875
310.924
311.039
311.173
311.311
311.541
311.62
311.808
311.896
311.936
311.779
311.557
311.345
311.178
311.039
310.905
310.973
311
303.711
303.687
303.646
303.667
303.699
303.74
303.789
303.869
303.887
303.97
303.986
304.002
303.949
303.874
303.813
303.748
303.706
303.654
303.679
303.682
356.773
356.167
355.689
355.826
356.209
356.82
357.762
358.533
359.494
360.283
360.497
360.458
359.81
358.924
358.036
357.161
356.589
356.163
356.202
356.499
349.146
348.645
348.223
348.335
348.685
349.194
349.999
350.681
351.465
352.178
352.363
352.313
351.765
350.97
350.223
349.468
348.958
348.577
348.603
348.876
341.54
341.148
340.757
340.857
341.175
341.595
342.269
342.847
343.478
344.08
344.258
344.21
343.774
343.083
342.427
341.785
341.366
341.032
341.053
341.291
333.964
333.663
333.309
333.413
333.655
334.023
334.556
335.045
335.541
336.034
336.186
336.127
335.788
335.202
334.65
334.158
333.797
333.544
333.536
333.732
326.404
326.194
325.875
325.974
326.169
326.457
326.841
327.258
327.611
328.019
328.152
328.061
327.797
327.35
326.914
326.545
326.276
326.071
326.061
326.215
318.852
318.699
318.491
318.548
318.686
318.909
319.168
319.498
319.733
320.02
320.104
320.023
319.865
319.555
319.195
318.961
318.784
318.607
318.618
318.725
311.321
311.225
311.093
311.141
311.222
311.357
311.523
311.713
311.852
312.016
312.071
312.025
311.925
311.762
311.512
311.381
311.285
311.162
311.185
311.254
303.789
303.763
303.705
303.721
303.753
303.813
303.864
303.929
303.98
304.02
304.046
304.031
303.992
303.948
303.847
303.809
303.791
303.736
303.749
303.773
358.008
357.339
356.923
356.956
357.218
357.787
358.51
359.502
360.36
360.948
361.234
361.146
360.644
359.826
359.127
358.29
357.722
357.392
357.512
357.916
350.235
349.664
349.283
349.321
349.533
350.031
350.655
351.523
352.237
352.759
352.992
352.889
352.475
351.763
351.158
350.439
349.92
349.661
349.765
350.114
342.474
342.006
341.675
341.7
341.885
342.306
342.84
343.567
344.167
344.597
344.777
344.706
344.335
343.731
343.212
342.631
342.172
341.964
342.047
342.336
334.713
334.354
334.075
334.086
334.274
334.591
335.02
335.617
336.143
336.465
336.609
336.547
336.257
335.736
335.286
334.837
334.456
334.292
334.351
334.584
326.982
326.729
326.491
326.484
326.677
326.907
327.233
327.713
328.119
328.367
328.464
328.408
328.198
327.784
327.4
327.077
326.775
326.654
326.69
326.856
319.275
319.11
318.936
318.908
319.084
319.213
319.457
319.806
320.103
320.268
320.322
320.284
320.152
319.862
319.548
319.331
319.123
319.052
319.057
319.171
311.575
311.488
311.393
311.374
311.485
311.54
311.668
311.891
312.081
312.161
312.193
312.187
312.119
311.93
311.722
311.623
311.496
311.441
311.456
311.504
303.875
303.859
303.823
303.815
303.853
303.861
303.9
303.993
304.047
304.073
304.09
304.074
304.069
304
303.928
303.896
303.857
303.82
303.836
303.847
359.17
358.559
358.191
358.137
358.23
358.808
359.59
360.308
361.152
361.477
361.703
361.787
361.445
360.72
360.072
359.388
358.894
358.677
358.833
359.243
351.26
350.718
350.418
350.337
350.435
350.917
351.608
352.205
352.955
353.215
353.387
353.468
353.179
352.547
351.988
351.378
350.951
350.756
350.904
351.227
343.354
342.901
342.654
342.561
342.657
343.043
343.647
344.145
344.779
344.992
345.125
345.19
344.941
344.424
343.911
343.408
343.019
342.872
343.007
343.27
335.465
335.11
334.916
334.827
334.883
335.2
335.712
336.114
336.609
336.795
336.899
336.918
336.735
336.307
335.884
335.477
335.146
335.02
335.132
335.345
327.573
327.322
327.173
327.065
327.107
327.367
327.763
328.102
328.47
328.613
328.667
328.688
328.554
328.227
327.888
327.582
327.308
327.206
327.303
327.477
319.706
319.541
319.413
319.34
319.358
319.538
319.832
320.076
320.341
320.447
320.473
320.497
320.387
320.161
319.925
319.714
319.482
319.421
319.497
319.635
311.845
311.751
311.662
311.611
311.617
311.738
311.907
312.03
312.213
312.265
312.29
312.301
312.243
312.114
311.967
311.851
311.707
311.658
311.713
311.806
303.974
303.943
303.905
303.896
303.894
303.939
303.996
304.029
304.095
304.108
304.119
304.129
304.106
304.061
304.013
303.971
303.929
303.912
303.923
303.945
360.391
359.862
359.428
359.276
359.281
359.929
360.593
361.285
361.89
362.193
362.443
362.515
362.192
361.601
361.06
360.418
360.008
359.795
360.115
360.548
352.287
351.847
351.471
351.326
351.342
351.882
352.446
353.037
353.578
353.82
354.03
354.094
353.812
353.316
352.808
352.287
351.897
351.737
351.986
352.363
344.226
343.863
343.541
343.403
343.434
343.864
344.34
344.813
345.297
345.503
345.643
345.718
345.504
345.071
344.606
344.193
343.842
343.728
343.917
344.221
336.193
335.89
335.608
335.498
335.532
335.859
336.276
336.619
337.025
337.226
337.3
337.359
337.217
336.814
336.455
336.144
335.835
335.748
335.867
336.123
328.18
327.905
327.689
327.617
327.645
327.881
328.211
328.455
328.772
328.962
328.997
329.04
328.95
328.608
328.325
328.107
327.839
327.791
327.879
328.063
320.155
319.918
319.767
319.745
319.747
319.904
320.149
320.339
320.561
320.688
320.701
320.715
320.693
320.429
320.237
320.064
319.865
319.837
319.902
320.04
312.115
311.963
311.863
311.856
311.839
311.956
312.095
312.227
312.363
312.421
312.427
312.44
312.431
312.261
312.164
312.039
311.922
311.894
311.946
312.023
304.067
304.016
303.98
303.977
303.953
304.018
304.053
304.102
304.146
304.169
304.164
304.176
304.167
304.118
304.083
304.034
303.996
303.984
304.002
304.02
361.619
360.946
360.553
360.583
360.646
361.054
361.452
362.183
362.628
362.998
363.128
363.255
362.953
362.555
361.913
361.409
361.11
361.115
361.354
361.824
353.377
352.785
352.414
352.475
352.523
352.85
353.214
353.833
354.2
354.51
354.65
354.735
354.472
354.123
353.534
353.102
352.865
352.857
353.057
353.454
345.139
344.639
344.323
344.389
344.418
344.664
345.005
345.506
345.827
346.066
346.205
346.252
346.039
345.702
345.236
344.861
344.662
344.642
344.809
345.129
336.916
336.51
336.239
336.289
336.337
336.514
336.799
337.204
337.484
337.641
337.767
337.781
337.644
337.338
336.963
336.662
336.502
336.453
336.623
336.848
328.692
328.409
328.186
328.213
328.246
328.373
328.615
328.932
329.161
329.244
329.377
329.367
329.27
329.017
328.737
328.51
328.38
328.328
328.468
328.627
320.474
320.301
320.113
320.151
320.163
320.249
320.441
320.676
320.849
320.896
321.004
320.985
320.914
320.723
320.549
320.38
320.268
320.218
320.32
320.428
312.301
312.188
312.062
312.097
312.105
312.159
312.293
312.42
312.52
312.544
312.621
312.605
312.567
312.434
312.339
312.225
312.151
312.124
312.215
312.252
304.125
304.083
304.042
304.047
304.042
304.067
304.125
304.166
304.196
304.201
304.232
304.229
304.21
304.155
304.131
304.095
304.065
304.052
304.1
304.108
362.801
362.075
361.736
361.659
361.646
362.047
362.567
363.03
363.327
363.763
363.872
363.849
363.659
363.297
362.8
362.376
362.123
362.275
362.429
362.888
354.353
353.753
353.456
353.361
353.354
353.715
354.149
354.556
354.797
355.197
355.285
355.243
355.076
354.751
354.324
353.945
353.707
353.858
353.954
354.34
345.948
345.461
345.194
345.1
345.103
345.403
345.777
346.112
346.3
346.643
346.711
346.693
346.539
346.23
345.906
345.569
345.358
345.477
345.555
345.878
337.561
337.164
336.963
336.857
336.863
337.114
337.43
337.699
337.853
338.116
338.182
338.167
338.044
337.755
337.507
337.24
337.06
337.151
337.21
337.476
329.193
328.898
328.749
328.662
328.653
328.851
329.11
329.297
329.407
329.608
329.684
329.66
329.578
329.316
329.152
328.94
328.772
328.858
328.912
329.104
320.854
320.638
320.528
320.471
320.466
320.605
320.796
320.921
321.004
321.132
321.214
321.168
321.134
320.917
320.81
320.668
320.518
320.608
320.659
320.766
312.528
312.393
312.339
312.285
312.283
312.363
312.502
312.558
312.624
312.695
312.732
312.71
312.68
312.549
312.498
312.415
312.324
312.371
312.41
312.455
304.208
304.15
304.141
304.122
304.119
304.146
304.2
304.197
304.228
304.265
304.267
304.253
304.243
304.202
304.202
304.166
304.132
304.142
304.167
304.168
363.705
362.972
362.596
362.382
362.474
362.87
363.289
363.525
363.854
364.313
364.445
364.459
364.169
363.881
363.455
363.281
363.025
363.166
363.359
363.749
355.067
354.474
354.194
353.96
354.034
354.402
354.743
354.944
355.197
355.603
355.707
355.735
355.451
355.237
354.846
354.679
354.437
354.546
354.719
355.022
346.491
346.032
345.811
345.605
345.646
345.96
346.232
346.413
346.615
346.937
347.011
347.068
346.798
346.651
346.288
346.126
345.963
346.019
346.179
346.425
337.975
337.636
337.456
337.282
337.305
337.559
337.785
337.932
338.065
338.332
338.372
338.436
338.211
338.097
337.794
337.654
337.529
337.563
337.697
337.894
329.489
329.268
329.098
328.98
328.975
329.171
329.364
329.463
329.58
329.782
329.798
329.872
329.697
329.583
329.349
329.234
329.131
329.162
329.264
329.452
321.048
320.905
320.767
320.698
320.689
320.817
320.957
321.021
321.138
321.261
321.273
321.333
321.222
321.107
320.93
320.9
320.8
320.802
320.885
321.021
312.639
312.563
312.458
312.413
312.408
312.5
312.58
312.612
312.694
312.757
312.774
312.815
312.756
312.665
312.542
312.56
312.487
312.481
312.547
312.602
304.246
304.207
304.169
304.166
304.155
304.196
304.22
304.225
304.257
304.271
304.284
304.285
304.288
304.242
304.21
304.208
304.182
304.172
304.21
304.223
)
;

boundaryField
{
    hotSide
    {
        type            fixedGradient;
        gradient        nonuniform List<scalar> 
400
(
504.531
503.52
504.985
508.848
514.847
522.608
531.736
541.872
552.726
564.079
575.777
587.728
599.89
612.27
624.917
637.916
651.381
665.427
680.148
695.582
489.303
488.646
490.636
495.176
501.947
510.503
520.386
531.198
542.622
554.426
566.455
578.618
590.88
603.26
615.821
628.672
641.951
655.808
670.361
685.664
481.429
481.424
484.026
489.129
496.406
505.413
515.688
526.826
538.503
550.482
562.605
574.782
586.983
599.233
611.606
624.22
637.223
650.771
664.99
679.942
480.403
481.33
484.648
490.24
497.821
506.999
517.359
528.52
540.168
552.067
564.057
576.048
588.016
599.991
612.052
624.318
636.931
650.036
663.75
678.138
484.373
486.417
490.579
496.732
504.627
513.934
524.293
535.359
546.836
558.497
570.185
581.815
593.372
604.896
616.472
628.219
640.273
652.764
665.801
679.454
491.213
494.473
499.618
506.503
514.896
524.498
534.983
546.029
557.354
568.735
580.027
591.16
602.134
613.012
623.898
634.921
646.219
657.921
670.133
682.93
499.112
503.629
509.878
517.691
526.829
536.992
547.851
559.077
570.379
581.532
592.398
602.932
613.172
623.222
633.222
643.331
653.704
664.479
675.766
687.647
506.606
512.357
519.775
528.669
538.777
549.773
561.287
572.946
584.415
595.442
605.896
615.768
625.158
634.238
643.212
652.284
661.639
671.431
681.776
692.756
512.471
519.335
527.878
537.895
549.099
561.118
573.519
585.845
597.676
608.706
618.798
627.999
636.498
644.567
652.491
660.532
668.908
677.785
687.283
697.48
515.682
523.396
532.858
543.855
556.08
569.121
582.473
595.579
607.907
619.068
628.915
637.558
645.297
652.512
659.574
666.795
674.416
682.61
691.495
701.142
515.485
523.64
533.625
545.229
558.134
571.901
585.978
599.729
612.535
623.94
633.778
642.207
649.606
656.43
663.102
669.961
677.26
685.173
693.814
703.248
511.539
519.627
529.617
541.296
554.339
568.3
582.615
596.641
609.754
621.489
631.675
640.455
648.195
655.34
662.308
669.438
676.982
685.117
693.958
703.576
504.045
511.564
521.054
532.298
544.969
558.627
572.733
586.697
599.964
612.12
622.989
632.65
641.372
649.512
657.427
665.427
673.755
682.593
692.063
702.244
493.774
500.328
508.957
519.449
531.479
544.617
558.363
572.192
585.626
598.307
610.053
620.866
630.903
640.407
649.652
658.899
668.372
678.249
688.663
699.701
482.02
487.362
494.96
504.618
516.006
528.696
542.203
556.038
569.77
583.069
595.742
607.735
619.114
630.03
640.682
651.28
662.023
673.085
684.6
696.662
470.581
474.603
481.157
490.062
500.971
513.422
526.905
540.932
555.08
569.027
582.57
595.617
608.18
620.35
632.27
644.112
656.058
668.273
680.895
694.017
461.797
464.52
470.107
478.389
488.978
501.346
514.93
529.214
543.767
558.273
572.519
586.399
599.893
613.055
625.994
638.86
651.82
665.039
678.656
692.763
458.45
460.041
464.765
472.468
482.717
494.923
508.478
522.843
537.59
552.403
567.075
581.491
595.614
609.474
623.159
636.796
650.543
664.563
678.994
693.92
462.999
463.771
467.727
474.731
484.359
496.029
509.143
523.177
537.715
552.454
567.189
581.799
596.234
610.506
624.678
638.858
653.182
667.798
682.829
698.346
476.219
476.521
479.795
485.93
494.578
505.252
517.433
530.655
544.536
558.789
573.212
587.676
602.119
616.533
630.956
645.467
660.17
675.178
690.586
706.447
)
;
    }
    coldSide
    {
        type            mixed;
        refValue        uniform 300;
        refGradient     uniform 0;
        valueFraction   uniform 0.991591;
        source          uniform 0;
        value           nonuniform List<scalar> 
400
(
300.026
300.026
300.026
300.026
300.026
300.027
300.027
300.028
300.029
300.029
300.03
300.03
300.031
300.032
300.033
300.033
300.034
300.035
300.035
300.036
300.025
300.025
300.025
300.026
300.026
300.027
300.027
300.028
300.028
300.029
300.03
300.03
300.031
300.032
300.032
300.033
300.034
300.034
300.035